# vtk DataFile Version 2.0
test
ASCII
DATASET POLYDATA
POINTS 4361 float
3.2969022e+00 6.4628485e+00 1.1867257e+01
3.3927378e+00 6.5343446e+00 1.1733563e+01
3.4912088e+00 6.6061634e+00 1.1602189e+01
3.5923150e+00 6.6783051e+00 1.1473133e+01
3.6960566e+00 6.7507694e+00 1.1346397e+01
3.8024336e+00 6.8235565e+00 1.1221981e+01
3.9114458e+00 6.8966664e+00 1.1099883e+01
3.9114458e+00 6.8966664e+00 1.1099883e+01
4.0266356e+00 6.9709742e+00 1.0982008e+01
4.1490158e+00 7.0448142e+00 1.0874258e+01
4.2785865e+00 7.1181865e+00 1.0776634e+01
4.4153475e+00 7.1910911e+00 1.0689135e+01
4.5592988e+00 7.2635280e+00 1.0611761e+01
4.7104406e+00 7.3354971e+00 1.0544513e+01
4.7104406e+00 7.3354971e+00 1.0544513e+01
4.8700814e+00 7.4047657e+00 1.0495811e+01
5.0324685e+00 7.4701713e+00 1.0459882e+01
5.1976020e+00 7.5317140e+00 1.0436726e+01
5.3654819e+00 7.5893938e+00 1.0426343e+01
5.5361083e+00 7.6432106e+00 1.0428733e+01
5.7094811e+00 7.6931644e+00 1.0443895e+01
5.7094811e+00 7.6931644e+00 1.0443895e+01
5.8814301e+00 7.7385117e+00 1.0467323e+01
6.0534345e+00 7.7804669e+00 1.0494427e+01
6.2254942e+00 7.8190302e+00 1.0525207e+01
6.3976093e+00 7.8542015e+00 1.0559662e+01
6.5697798e+00 7.8859808e+00 1.0597792e+01
6.7420056e+00 7.9143681e+00 1.0639598e+01
6.7420056e+00 7.9143681e+00 1.0639598e+01
6.9146821e+00 7.9401324e+00 1.0681244e+01
7.0883596e+00 7.9631404e+00 1.0718837e+01
7.2630382e+00 7.9833921e+00 1.0752379e+01
7.4387179e+00 8.0008874e+00 1.0781868e+01
7.6153986e+00 8.0156263e+00 1.0807306e+01
7.7930803e+00 8.0276089e+00 1.0828691e+01
7.7930803e+00 8.0276089e+00 1.0828691e+01
7.9734682e+00 8.0367346e+00 1.0841354e+01
8.1522912e+00 8.0428466e+00 1.0840822e+01
8.3295494e+00 8.0459447e+00 1.0827097e+01
8.5052427e+00 8.0460290e+00 1.0800178e+01
8.6793712e+00 8.0430995e+00 1.0760065e+01
8.8519348e+00 8.0371562e+00 1.0706758e+01
8.8519348e+00 8.0371562e+00 1.0706758e+01
9.0170057e+00 8.0280577e+00 1.0634547e+01
9.1752464e+00 8.0173302e+00 1.0552081e+01
9.3266570e+00 8.0049737e+00 1.0459362e+01
9.4712375e+00 7.9909883e+00 1.0356389e+01
9.6089878e+00 7.9753740e+00 1.0243162e+01
9.7399079e+00 7.9581306e+00 1.0119681e+01
9.7399079e+00 7.9581306e+00 1.0119681e+01
9.8645191e+00 7.9404540e+00 9.9920251e+00
9.9864911e+00 7.9224777e+00 9.8620511e+00
1.0105824e+01 7.9042018e+00 9.7297591e+00
1.0222517e+01 7.8856263e+00 9.5951493e+00
1.0336571e+01 7.8667511e+00 9.4582217e+00
1.0447986e+01 7.8475764e+00 9.3189761e+00
1.0447986e+01 7.8475764e+00 9.3189761e+00
1.0353124e+01 7.7839285e+00 9.1747362e+00
1.0259605e+01 7.7197660e+00 9.0298872e+00
1.0167428e+01 7.6550888e+00 8.8844289e+00
1.0076594e+01 7.5898970e+00 8.7383615e+00
9.9871022e+00 7.5241906e+00 8.5916850e+00
9.8989529e+00 7.4579696e+00 8.4443992e+00
9.8989529e+00 7.4579696e+00 8.4443992e+00
9.8133197e+00 7.3906976e+00 8.2957773e+00
9.7324549e+00 7.3218670e+00 8.1455965e+00
9.6563585e+00 7.2514777e+00 7.9938568e+00
9.5850306e+00 7.1795298e+00 7.8405583e+00
9.5184712e+00 7.1060232e+00 7.6857010e+00
9.4566802e+00 7.0309580e+00 7.5292848e+00
9.4566802e+00 7.0309580e+00 7.5292848e+00
9.4019630e+00 6.9536072e+00 7.3705873e+00
9.3565457e+00 6.8742164e+00 7.2111411e+00
9.3204285e+00 6.7927855e+00 7.0509463e+00
9.2936113e+00 6.7093144e+00 6.8900027e+00
9.2760942e+00 6.6238033e+00 6.7283105e+00
9.2678771e+00 6.5362521e+00 6.5658696e+00
9.2678771e+00 6.5362521e+00 6.5658696e+00
9.2720351e+00 6.4467904e+00 6.4041682e+00
9.2860724e+00 6.3563512e+00 6.2448537e+00
9.3099888e+00 6.2649345e+00 6.0879261e+00
9.3437843e+00 6.1725402e+00 5.9333854e+00
9.3874590e+00 6.0791684e+00 5.7812316e+00
9.4410129e+00 5.9848190e+00 5.6314647e+00
9.4410129e+00 5.9848190e+00 5.6314647e+00
9.5027106e+00 5.8903670e+00 5.4857751e+00
9.5697800e+00 5.7955218e+00 5.3432630e+00
9.6422213e+00 5.7002835e+00 5.2039282e+00
9.7200344e+00 5.6046519e+00 5.0677709e+00
9.8032192e+00 5.5086271e+00 4.9347910e+00
9.8917758e+00 5.4122092e+00 4.8049886e+00
9.8917758e+00 5.4122092e+00 4.8049886e+00
9.9831989e+00 5.3153687e+00 4.6779964e+00
1.0076136e+01 5.2175200e+00 4.5530001e+00
1.0170587e+01 5.1186629e+00 4.4299996e+00
1.0266552e+01 5.0187974e+00 4.3089950e+00
1.0364030e+01 4.9179237e+00 4.1899861e+00
1.0463023e+01 4.8160416e+00 4.0729730e+00
1.0463023e+01 4.8160416e+00 4.0729730e+00
1.0562012e+01 4.7127130e+00 3.9572323e+00
1.0659479e+01 4.6072804e+00 3.8422329e+00
1.0755424e+01 4.4997440e+00 3.7279750e+00
1.0849848e+01 4.3901037e+00 3.6144586e+00
1.0942750e+01 4.2783594e+00 3.5016836e+00
1.1034130e+01 4.1645113e+00 3.3896501e+00
1.1034130e+01 4.1645113e+00 3.3896501e+00
1.1122636e+01 4.0478300e+00 3.2776697e+00
1.1205761e+01 3.9279624e+00 3.1656600e+00
1.1283505e+01 3.8049084e+00 3.0536213e+00
1.1355868e+01 3.6786681e+00 2.9415533e+00
1.1422850e+01 3.5492415e+00 2.8294562e+00
1.1484451e+01 3.4166285e+00 2.7173300e+00
1.1484451e+01 3.4166285e+00 2.7173300e+00
1.1537899e+01 3.2799817e+00 2.6047645e+00
1.1581458e+01 3.1408708e+00 2.4928391e+00
1.1615130e+01 2.9992958e+00 2.3815538e+00
1.1638913e+01 2.8552567e+00 2.2709086e+00
1.1652809e+01 2.7087535e+00 2.1609035e+00
1.1656817e+01 2.5597863e+00 2.0515384e+00
1.1656817e+01 2.5597863e+00 2.0515384e+00
1.1648443e+01 2.4098769e+00 1.9439427e+00
1.1630765e+01 2.2604760e+00 1.8384428e+00
1.1603783e+01 2.1115837e+00 1.7350386e+00
1.1567497e+01 1.9631998e+00 1.6337302e+00
1.1521907e+01 1.8153245e+00 1.5345175e+00
1.1467013e+01 1.6679577e+00 1.4374005e+00
1.1467013e+01 1.6679577e+00 1.4374005e+00
1.1405045e+01 1.5225819e+00 1.3428239e+00
1.1338308e+01 1.3785666e+00 1.2499803e+00
1.1266801e+01 1.2359120e+00 1.1588697e+00
1.1190526e+01 1.0946181e+00 1.0694921e+00
1.1109482e+01 9.5468475e-01 9.8184748e-01
1.1023669e+01 8.1611207e-01 8.9593587e-01
1.1023669e+01 8.1611207e-01 8.9593587e-01
1.0935341e+01 6.7873765e-01 8.1123094e-01
1.0845670e+01 5.4190553e-01 7.2711084e-01
1.0754656e+01 4.0561570e-01 6.4357559e-01
1.0662300e+01 2.6986817e-01 5.6062517e-01
1.0568602e+01 1.3466294e-01 4.7825958e-01
1.0473561e+01 0.0000000e+00 3.9647883e-01
1.2181200e+00 5.2115121e+00 1.1644555e+01
1.1955331e+00 5.1752809e+00 1.1457034e+01
1.1752464e+00 5.1384634e+00 1.1269433e+01
1.1572598e+00 5.1010595e+00 1.1081751e+01
1.1415734e+00 5.0630694e+00 1.0893988e+01
1.1281872e+00 5.0244930e+00 1.0706145e+01
1.1171012e+00 4.9853303e+00 1.0518221e+01
1.1171012e+00 4.9853303e+00 1.0518221e+01
1.1105074e+00 4.9449631e+00 1.0329693e+01
1.1118752e+00 4.9027474e+00 1.0142221e+01
1.1212046e+00 4.8586831e+00 9.9558036e+00
1.1384956e+00 4.8127702e+00 9.7704414e+00
1.1637483e+00 4.7650088e+00 9.5861342e+00
1.1969626e+00 4.7153989e+00 9.4028822e+00
1.1969626e+00 4.7153989e+00 9.4028822e+00
1.2429223e+00 4.6629887e+00 9.2220780e+00
1.3005173e+00 4.6083858e+00 9.0473213e+00
1.3697476e+00 4.5515900e+00 8.8786120e+00
1.4506132e+00 4.4926013e+00 8.7159501e+00
1.5431140e+00 4.4314198e+00 8.5593356e+00
1.6472502e+00 4.3680455e+00 8.4087685e+00
1.6472502e+00 4.3680455e+00 8.4087685e+00
1.7622795e+00 4.3031139e+00 8.2681784e+00
1.8834200e+00 4.2368838e+00 8.1347340e+00
2.0106716e+00 4.1693553e+00 8.0084352e+00
2.1440343e+00 4.1005282e+00 7.8892820e+00
2.2835082e+00 4.0304027e+00 7.7772744e+00
2.4290933e+00 3.9589787e+00 7.6724124e+00
2.4290933e+00 3.9589787e+00 7.6724124e+00
2.5770054e+00 3.8865637e+00 7.5730437e+00
2.7260081e+00 3.8125009e+00 7.4768277e+00
2.8761012e+00 3.7367904e+00 7.3837645e+00
3.0272848e+00 3.6594321e+00 7.2938539e+00
3.1795589e+00 3.5804262e+00 7.2070961e+00
3.3329235e+00 3.4997726e+00 7.1234910e+00
3.3329235e+00 3.4997726e+00 7.1234910e+00
3.4857825e+00 3.4170721e+00 7.0409667e+00
3.6364291e+00 3.3314768e+00 6.9576882e+00
3.7848632e+00 3.2429867e+00 6.8736556e+00
3.9310849e+00 3.1516017e+00 6.7888688e+00
4.0750941e+00 3.0573219e+00 6.7033278e+00
4.2168909e+00 2.9601472e+00 6.6170326e+00
4.2168909e+00 2.9601472e+00 6.6170326e+00
4.3551377e+00 2.8590124e+00 6.5278586e+00
4.4859600e+00 2.7538587e+00 6.4343466e+00
4.6093578e+00 2.6446862e+00 6.3364967e+00
4.7253311e+00 2.5314948e+00 6.2343088e+00
4.8338799e+00 2.4142845e+00 6.1277830e+00
4.9350042e+00 2.2930553e+00 6.0169192e+00
4.9350042e+00 2.2930553e+00 6.0169192e+00
5.0237109e+00 2.1672112e+00 5.8993375e+00
5.0998561e+00 2.0398098e+00 5.7776885e+00
5.1634398e+00 1.9108511e+00 5.6519722e+00
5.2144619e+00 1.7803353e+00 5.5221886e+00
5.2529226e+00 1.6482622e+00 5.3883376e+00
5.2788216e+00 1.5146319e+00 5.2504195e+00
5.2788216e+00 1.5146319e+00 5.2504195e+00
5.2916270e+00 1.3823915e+00 5.1107980e+00
5.2963088e+00 1.2513440e+00 4.9704676e+00
5.2928670e+00 1.1214895e+00 4.8294283e+00
5.2813017e+00 9.9282791e-01 4.6876802e+00
5.2616128e+00 8.6535922e-01 4.5452231e+00
5.2338004e+00 7.3908346e-01 4.4020572e+00
5.2338004e+00 7.3908346e-01 4.4020572e+00
5.2015782e+00 6.1434610e-01 4.2593184e+00
5.1670649e+00 4.9023145e-01 4.1166410e+00
5.1302604e+00 3.6673952e-01 3.9740251e+00
5.0911647e+00 2.4387030e-01 3.8314705e+00
5.0497778e+00 1.2162379e-01 3.6889773e+00
5.0060998e+00 -2.6645353e-15 3.5465455e+00
0.0000000e+00 4.9697044e+00 1.3919783e+01
5.0697455e-02 5.0727786e+00 1.3760396e+01
1.1475781e-01 5.1772882e+00 1.3611152e+01
1.9218107e-01 5.2832332e+00 1.3472052e+01
2.8296723e-01 5.3906137e+00 1.3343095e+01
3.8711628e-01 5.4994296e+00 1.3224281e+01
5.0462824e-01 5.6096809e+00 1.3115610e+01
5.0462824e-01 5.6096809e+00 1.3115610e+01
6.5642190e-01 5.7141449e+00 1.3051549e+01
8.1530247e-01 5.8098204e+00 1.3003568e+01
9.8126997e-01 5.8967074e+00 1.2971665e+01
1.1543244e+00 5.9748059e+00 1.2955842e+01
1.3344658e+00 6.0441159e+00 1.2956099e+01
1.5216940e+00 6.1046374e+00 1.2972434e+01
1.5216940e+00 6.1046374e+00 1.2972434e+01
1.7104757e+00 6.1603995e+00 1.2987803e+01
1.8966260e+00 6.2112994e+00 1.2984318e+01
2.0801448e+00 6.2573369e+00 1.2961980e+01
2.2610321e+00 6.2985122e+00 1.2920789e+01
2.4392880e+00 6.3348251e+00 1.2860746e+01
2.6149125e+00 6.3662758e+00 1.2781849e+01
2.6149125e+00 6.3662758e+00 1.2781849e+01
2.7607549e+00 6.3897278e+00 1.2655541e+01
2.8937263e+00 6.4102372e+00 1.2518783e+01
3.0138267e+00 6.4278039e+00 1.2371576e+01
3.1210562e+00 6.4424281e+00 1.2213919e+01
[...]
POINT_DATA 4361
VECTORS U float
0.0000000e+00 0.0000000e+00 0.0000000e+00
0.0000000e+00 0.0000000e+00 0.0000000e+00
0.0000000e+00 0.0000000e+00 0.0000000e+00
0.0000000e+00 0.0000000e+00 0.0000000e+00
0.0000000e+00 0.0000000e+00 0.0000000e+00
0.0000000e+00 0.0000000e+00 0.0000000e+00
0.0000000e+00 0.0000000e+00 0.0000000e+00
0.0000000e+00 0.0000000e+00 0.0000000e+00
0.0000000e+00 0.0000000e+00 0.0000000e+00
0.0000000e+00 0.0000000e+00 0.0000000e+00
0.0000000e+00 0.0000000e+00 0.0000000e+00
0.0000000e+00 0.0000000e+00 0.0000000e+00
0.0000000e+00 0.0000000e+00 0.0000000e+00
0.0000000e+00 0.0000000e+00 0.0000000e+00
0.0000000e+00 0.0000000e+00 0.0000000e+00
0.0000000e+00 0.0000000e+00 0.0000000e+00
0.0000000e+00 0.0000000e+00 0.0000000e+00
0.0000000e+00 0.0000000e+00 0.0000000e+00
0.0000000e+00 0.0000000e+00 0.0000000e+00
0.0000000e+00 0.0000000e+00 0.0000000e+00
0.0000000e+00 0.0000000e+00 0.0000000e+00
0.0000000e+00 0.0000000e+00 0.0000000e+00
0.0000000e+00 0.0000000e+00 0.0000000e+00
0.0000000e+00 0.0000000e+00 0.0000000e+00
0.0000000e+00 0.0000000e+00 0.0000000e+00
0.0000000e+00 0.0000000e+00 0.0000000e+00
0.0000000e+00 0.0000000e+00 0.0000000e+00
0.0000000e+00 0.0000000e+00 0.0000000e+00
0.0000000e+00 0.0000000e+00 0.0000000e+00
0.0000000e+00 0.0000000e+00 0.0000000e+00
0.0000000e+00 0.0000000e+00 0.0000000e+00
0.0000000e+00 0.0000000e+00 0.0000000e+00
0.0000000e+00 0.0000000e+00 0.0000000e+00
0.0000000e+00 0.0000000e+00 0.0000000e+00
0.0000000e+00 0.0000000e+00 0.0000000e+00
0.0000000e+00 0.0000000e+00 0.0000000e+00
0.0000000e+00 0.0000000e+00 0.0000000e+00
0.0000000e+00 0.0000000e+00 0.0000000e+00
0.0000000e+00 0.0000000e+00 0.0000000e+00
0.0000000e+00 0.0000000e+00 0.0000000e+00
0.0000000e+00 0.0000000e+00 0.0000000e+00
0.0000000e+00 0.0000000e+00 0.0000000e+00
0.0000000e+00 0.0000000e+00 0.0000000e+00
0.0000000e+00 0.0000000e+00 0.0000000e+00
0.0000000e+00 0.0000000e+00 0.0000000e+00
0.0000000e+00 0.0000000e+00 0.0000000e+00
0.0000000e+00 0.0000000e+00 0.0000000e+00
0.0000000e+00 0.0000000e+00 0.0000000e+00
0.0000000e+00 0.0000000e+00 0.0000000e+00
0.0000000e+00 0.0000000e+00 0.0000000e+00
0.0000000e+00 0.0000000e+00 0.0000000e+00
0.0000000e+00 0.0000000e+00 0.0000000e+00
0.0000000e+00 0.0000000e+00 0.0000000e+00
0.0000000e+00 0.0000000e+00 0.0000000e+00
0.0000000e+00 0.0000000e+00 0.0000000e+00
0.0000000e+00 0.0000000e+00 0.0000000e+00
0.0000000e+00 0.0000000e+00 0.0000000e+00
0.0000000e+00 0.0000000e+00 0.0000000e+00
0.0000000e+00 0.0000000e+00 0.0000000e+00
0.0000000e+00 0.0000000e+00 0.0000000e+00
0.0000000e+00 0.0000000e+00 0.0000000e+00
0.0000000e+00 0.0000000e+00 0.0000000e+00
0.0000000e+00 0.0000000e+00 0.0000000e+00
0.0000000e+00 0.0000000e+00 0.0000000e+00
0.0000000e+00 0.0000000e+00 0.0000000e+00
0.0000000e+00 0.0000000e+00 0.0000000e+00
0.0000000e+00 0.0000000e+00 0.0000000e+00
0.0000000e+00 0.0000000e+00 0.0000000e+00
0.0000000e+00 0.0000000e+00 0.0000000e+00
0.0000000e+00 0.0000000e+00 0.0000000e+00
0.0000000e+00 0.0000000e+00 0.0000000e+00
0.0000000e+00 0.0000000e+00 0.0000000e+00
0.0000000e+00 0.0000000e+00 0.0000000e+00
0.0000000e+00 0.0000000e+00 0.0000000e+00
0.0000000e+00 0.0000000e+00 0.0000000e+00
0.0000000e+00 0.0000000e+00 0.0000000e+00
0.0000000e+00 0.0000000e+00 0.0000000e+00
0.0000000e+00 0.0000000e+00 0.0000000e+00
0.0000000e+00 0.0000000e+00 0.0000000e+00
0.0000000e+00 0.0000000e+00 0.0000000e+00
0.0000000e+00 0.0000000e+00 0.0000000e+00
0.0000000e+00 0.0000000e+00 0.0000000e+00
0.0000000e+00 0.0000000e+00 0.0000000e+00
0.0000000e+00 0.0000000e+00 0.0000000e+00
0.0000000e+00 0.0000000e+00 0.0000000e+00
0.0000000e+00 0.0000000e+00 0.0000000e+00
0.0000000e+00 0.0000000e+00 0.0000000e+00
0.0000000e+00 0.0000000e+00 0.0000000e+00
0.0000000e+00 0.0000000e+00 0.0000000e+00
0.0000000e+00 0.0000000e+00 0.0000000e+00
0.0000000e+00 0.0000000e+00 0.0000000e+00
0.0000000e+00 0.0000000e+00 0.0000000e+00
0.0000000e+00 0.0000000e+00 0.0000000e+00
0.0000000e+00 0.0000000e+00 0.0000000e+00
0.0000000e+00 0.0000000e+00 0.0000000e+00
0.0000000e+00 0.0000000e+00 0.0000000e+00
0.0000000e+00 0.0000000e+00 0.0000000e+00
0.0000000e+00 0.0000000e+00 0.0000000e+00
0.0000000e+00 0.0000000e+00 0.0000000e+00
0.0000000e+00 0.0000000e+00 0.0000000e+00
0.0000000e+00 0.0000000e+00 0.0000000e+00
0.0000000e+00 0.0000000e+00 0.0000000e+00
0.0000000e+00 0.0000000e+00 0.0000000e+00
0.0000000e+00 0.0000000e+00 0.0000000e+00
0.0000000e+00 0.0000000e+00 0.0000000e+00
0.0000000e+00 0.0000000e+00 0.0000000e+00
0.0000000e+00 0.0000000e+00 0.0000000e+00
0.0000000e+00 0.0000000e+00 0.0000000e+00
0.0000000e+00 0.0000000e+00 0.0000000e+00
0.0000000e+00 0.0000000e+00 0.0000000e+00
0.0000000e+00 0.0000000e+00 0.0000000e+00
0.0000000e+00 0.0000000e+00 0.0000000e+00
0.0000000e+00 0.0000000e+00 0.0000000e+00
0.0000000e+00 0.0000000e+00 0.0000000e+00
0.0000000e+00 0.0000000e+00 0.0000000e+00
0.0000000e+00 0.0000000e+00 0.0000000e+00
0.0000000e+00 0.0000000e+00 0.0000000e+00
0.0000000e+00 0.0000000e+00 0.0000000e+00
0.0000000e+00 0.0000000e+00 0.0000000e+00
0.0000000e+00 0.0000000e+00 0.0000000e+00
0.0000000e+00 0.0000000e+00 0.0000000e+00
0.0000000e+00 0.0000000e+00 0.0000000e+00
0.0000000e+00 0.0000000e+00 0.0000000e+00
0.0000000e+00 0.0000000e+00 0.0000000e+00
0.0000000e+00 0.0000000e+00 0.0000000e+00
0.0000000e+00 0.0000000e+00 0.0000000e+00
0.0000000e+00 0.0000000e+00 0.0000000e+00
0.0000000e+00 0.0000000e+00 0.0000000e+00
0.0000000e+00 0.0000000e+00 0.0000000e+00
0.0000000e+00 0.0000000e+00 0.0000000e+00
0.0000000e+00 0.0000000e+00 0.0000000e+00
0.0000000e+00 0.0000000e+00 0.0000000e+00
0.0000000e+00 0.0000000e+00 0.0000000e+00
0.0000000e+00 0.0000000e+00 0.0000000e+00
0.0000000e+00 0.0000000e+00 0.0000000e+00
0.0000000e+00 0.0000000e+00 0.0000000e+00
0.0000000e+00 0.0000000e+00 0.0000000e+00
0.0000000e+00 0.0000000e+00 0.0000000e+00
0.0000000e+00 0.0000000e+00 0.0000000e+00
0.0000000e+00 0.0000000e+00 0.0000000e+00
0.0000000e+00 0.0000000e+00 0.0000000e+00
0.0000000e+00 0.0000000e+00 0.0000000e+00
0.0000000e+00 0.0000000e+00 0.0000000e+00
0.0000000e+00 0.0000000e+00 0.0000000e+00
0.0000000e+00 0.0000000e+00 0.0000000e+00
0.0000000e+00 0.0000000e+00 0.0000000e+00
0.0000000e+00 0.0000000e+00 0.0000000e+00
0.0000000e+00 0.0000000e+00 0.0000000e+00
0.0000000e+00 0.0000000e+00 0.0000000e+00
0.0000000e+00 0.0000000e+00 0.0000000e+00
0.0000000e+00 0.0000000e+00 0.0000000e+00
0.0000000e+00 0.0000000e+00 0.0000000e+00
0.0000000e+00 0.0000000e+00 0.0000000e+00
0.0000000e+00 0.0000000e+00 0.0000000e+00
0.0000000e+00 0.0000000e+00 0.0000000e+00
0.0000000e+00 0.0000000e+00 0.0000000e+00
0.0000000e+00 0.0000000e+00 0.0000000e+00
0.0000000e+00 0.0000000e+00 0.0000000e+00
0.0000000e+00 0.0000000e+00 0.0000000e+00
0.0000000e+00 0.0000000e+00 0.0000000e+00
0.0000000e+00 0.0000000e+00 0.0000000e+00
0.0000000e+00 0.0000000e+00 0.0000000e+00
0.0000000e+00 0.0000000e+00 0.0000000e+00
0.0000000e+00 0.0000000e+00 0.0000000e+00
0.0000000e+00 0.0000000e+00 0.0000000e+00
0.0000000e+00 0.0000000e+00 0.0000000e+00
0.0000000e+00 0.0000000e+00 0.0000000e+00
0.0000000e+00 0.0000000e+00 0.0000000e+00
0.0000000e+00 0.0000000e+00 0.0000000e+00
0.0000000e+00 0.0000000e+00 0.0000000e+00
0.0000000e+00 0.0000000e+00 0.0000000e+00
0.0000000e+00 0.0000000e+00 0.0000000e+00
0.0000000e+00 0.0000000e+00 0.0000000e+00
0.0000000e+00 0.0000000e+00 0.0000000e+00
0.0000000e+00 0.0000000e+00 0.0000000e+00
0.0000000e+00 0.0000000e+00 0.0000000e+00
0.0000000e+00 0.0000000e+00 0.0000000e+00
0.0000000e+00 0.0000000e+00 0.0000000e+00
0.0000000e+00 0.0000000e+00 0.0000000e+00
0.0000000e+00 0.0000000e+00 0.0000000e+00
0.0000000e+00 0.0000000e+00 0.0000000e+00
0.0000000e+00 0.0000000e+00 0.0000000e+00
0.0000000e+00 0.0000000e+00 0.0000000e+00
0.0000000e+00 0.0000000e+00 0.0000000e+00
0.0000000e+00 0.0000000e+00 0.0000000e+00
0.0000000e+00 0.0000000e+00 0.0000000e+00
0.0000000e+00 0.0000000e+00 0.0000000e+00
0.0000000e+00 0.0000000e+00 0.0000000e+00
0.0000000e+00 0.0000000e+00 0.0000000e+00
0.0000000e+00 0.0000000e+00 0.0000000e+00
0.0000000e+00 0.0000000e+00 0.0000000e+00
0.0000000e+00 0.0000000e+00 0.0000000e+00
0.0000000e+00 0.0000000e+00 0.0000000e+00
0.0000000e+00 0.0000000e+00 0.0000000e+00
0.0000000e+00 0.0000000e+00 0.0000000e+00
0.0000000e+00 0.0000000e+00 0.0000000e+00
0.0000000e+00 0.0000000e+00 0.0000000e+00
0.0000000e+00 0.0000000e+00 0.0000000e+00
0.0000000e+00 0.0000000e+00 0.0000000e+00
0.0000000e+00 0.0000000e+00 0.0000000e+00
0.0000000e+00 0.0000000e+00 0.0000000e+00
0.0000000e+00 0.0000000e+00 0.0000000e+00
0.0000000e+00 0.0000000e+00 0.0000000e+00
0.0000000e+00 0.0000000e+00 0.0000000e+00
0.0000000e+00 0.0000000e+00 0.0000000e+00
0.0000000e+00 0.0000000e+00 0.0000000e+00
0.0000000e+00 0.0000000e+00 0.0000000e+00
0.0000000e+00 0.0000000e+00 0.0000000e+00
0.0000000e+00 0.0000000e+00 0.0000000e+00
0.0000000e+00 0.0000000e+00 0.0000000e+00
0.0000000e+00 0.0000000e+00 0.0000000e+00
0.0000000e+00 0.0000000e+00 0.0000000e+00
0.0000000e+00 0.0000000e+00 0.0000000e+00
0.0000000e+00 0.0000000e+00 0.0000000e+00
0.0000000e+00 0.0000000e+00 0.0000000e+00
0.0000000e+00 0.0000000e+00 0.0000000e+00
0.0000000e+00 0.0000000e+00 0.0000000e+00
0.0000000e+00 0.0000000e+00 0.0000000e+00
0.0000000e+00 0.0000000e+00 0.0000000e+00
0.0000000e+00 0.0000000e+00 0.0000000e+00
0.0000000e+00 0.0000000e+00 0.0000000e+00
0.0000000e+00 0.0000000e+00 0.0000000e+00
0.0000000e+00 0.0000000e+00 0.0000000e+00
0.0000000e+00 0.0000000e+00 0.0000000e+00
0.0000000e+00 0.0000000e+00 0.0000000e+00
0.0000000e+00 0.0000000e+00 0.0000000e+00
0.0000000e+00 0.0000000e+00 0.0000000e+00
0.0000000e+00 0.0000000e+00 0.0000000e+00
0.0000000e+00 0.0000000e+00 0.0000000e+00
0.0000000e+00 0.0000000e+00 0.0000000e+00
0.0000000e+00 0.0000000e+00 0.0000000e+00
0.0000000e+00 0.0000000e+00 0.0000000e+00
0.0000000e+00 0.0000000e+00 0.0000000e+00
0.0000000e+00 0.0000000e+00 0.0000000e+00
0.0000000e+00 0.0000000e+00 0.0000000e+00
0.0000000e+00 0.0000000e+00 0.0000000e+00
0.0000000e+00 0.0000000e+00 0.0000000e+00
0.0000000e+00 0.0000000e+00 0.0000000e+00
0.0000000e+00 0.0000000e+00 0.0000000e+00
0.0000000e+00 0.0000000e+00 0.0000000e+00
0.0000000e+00 0.0000000e+00 0.0000000e+00
0.0000000e+00 0.0000000e+00 0.0000000e+00
0.0000000e+00 0.0000000e+00 0.0000000e+00
0.0000000e+00 0.0000000e+00 0.0000000e+00
0.0000000e+00 0.0000000e+00 0.0000000e+00
0.0000000e+00 0.0000000e+00 0.0000000e+00
0.0000000e+00 0.0000000e+00 0.0000000e+00
0.0000000e+00 0.0000000e+00 0.0000000e+00
0.0000000e+00 0.0000000e+00 0.0000000e+00
0.0000000e+00 0.0000000e+00 0.0000000e+00
0.0000000e+00 0.0000000e+00 0.0000000e+00
0.0000000e+00 0.0000000e+00 0.0000000e+00
0.0000000e+00 0.0000000e+00 0.0000000e+00
0.0000000e+00 0.0000000e+00 0.0000000e+00
0.0000000e+00 0.0000000e+00 0.0000000e+00
0.0000000e+00 0.0000000e+00 0.0000000e+00
0.0000000e+00 0.0000000e+00 0.0000000e+00
0.0000000e+00 0.0000000e+00 0.0000000e+00
0.0000000e+00 0.0000000e+00 0.0000000e+00
0.0000000e+00 0.0000000e+00 0.0000000e+00
0.0000000e+00 0.0000000e+00 0.0000000e+00
0.0000000e+00 0.0000000e+00 0.0000000e+00
0.0000000e+00 0.0000000e+00 0.0000000e+00
0.0000000e+00 0.0000000e+00 0.0000000e+00
0.0000000e+00 0.0000000e+00 0.0000000e+00
0.0000000e+00 0.0000000e+00 0.0000000e+00
0.0000000e+00 0.0000000e+00 0.0000000e+00
0.0000000e+00 0.0000000e+00 0.0000000e+00
0.0000000e+00 0.0000000e+00 0.0000000e+00
0.0000000e+00 0.0000000e+00 0.0000000e+00
0.0000000e+00 0.0000000e+00 0.0000000e+00
0.0000000e+00 0.0000000e+00 0.0000000e+00
0.0000000e+00 0.0000000e+00 0.0000000e+00
0.0000000e+00 0.0000000e+00 0.0000000e+00
0.0000000e+00 0.0000000e+00 0.0000000e+00
0.0000000e+00 0.0000000e+00 0.0000000e+00
0.0000000e+00 0.0000000e+00 0.0000000e+00
0.0000000e+00 0.0000000e+00 0.0000000e+00
0.0000000e+00 0.0000000e+00 0.0000000e+00
0.0000000e+00 0.0000000e+00 0.0000000e+00
0.0000000e+00 0.0000000e+00 0.0000000e+00
0.0000000e+00 0.0000000e+00 0.0000000e+00
0.0000000e+00 0.0000000e+00 0.0000000e+00
0.0000000e+00 0.0000000e+00 0.0000000e+00
0.0000000e+00 0.0000000e+00 0.0000000e+00
0.0000000e+00 0.0000000e+00 0.0000000e+00
0.0000000e+00 0.0000000e+00 0.0000000e+00
0.0000000e+00 0.0000000e+00 0.0000000e+00
0.0000000e+00 0.0000000e+00 0.0000000e+00
0.0000000e+00 0.0000000e+00 0.0000000e+00
0.0000000e+00 0.0000000e+00 0.0000000e+00
0.0000000e+00 0.0000000e+00 0.0000000e+00
0.0000000e+00 0.0000000e+00 0.0000000e+00
0.0000000e+00 0.0000000e+00 0.0000000e+00
0.0000000e+00 0.0000000e+00 0.0000000e+00
0.0000000e+00 0.0000000e+00 0.0000000e+00
0.0000000e+00 0.0000000e+00 0.0000000e+00
0.0000000e+00 0.0000000e+00 0.0000000e+00
0.0000000e+00 0.0000000e+00 0.0000000e+00
0.0000000e+00 0.0000000e+00 0.0000000e+00
0.0000000e+00 0.0000000e+00 0.0000000e+00
0.0000000e+00 0.0000000e+00 0.0000000e+00
0.0000000e+00 0.0000000e+00 0.0000000e+00
0.0000000e+00 0.0000000e+00 0.0000000e+00
0.0000000e+00 0.0000000e+00 0.0000000e+00
0.0000000e+00 0.0000000e+00 0.0000000e+00
0.0000000e+00 0.0000000e+00 0.0000000e+00
0.0000000e+00 0.0000000e+00 0.0000000e+00
0.0000000e+00 0.0000000e+00 0.0000000e+00
0.0000000e+00 0.0000000e+00 0.0000000e+00
0.0000000e+00 0.0000000e+00 0.0000000e+00
0.0000000e+00 0.0000000e+00 0.0000000e+00
0.0000000e+00 0.0000000e+00 0.0000000e+00
0.0000000e+00 0.0000000e+00 0.0000000e+00
0.0000000e+00 0.0000000e+00 0.0000000e+00
0.0000000e+00 0.0000000e+00 0.0000000e+00
0.0000000e+00 0.0000000e+00 0.0000000e+00
0.0000000e+00 0.0000000e+00 0.0000000e+00
0.0000000e+00 0.0000000e+00 0.0000000e+00
0.0000000e+00 0.0000000e+00 0.0000000e+00
0.0000000e+00 0.0000000e+00 0.0000000e+00
0.0000000e+00 0.0000000e+00 0.0000000e+00
0.0000000e+00 0.0000000e+00 0.0000000e+00
0.0000000e+00 0.0000000e+00 0.0000000e+00
0.0000000e+00 0.0000000e+00 0.0000000e+00
0.0000000e+00 0.0000000e+00 0.0000000e+00
0.0000000e+00 0.0000000e+00 0.0000000e+00
0.0000000e+00 0.0000000e+00 0.0000000e+00
0.0000000e+00 0.0000000e+00 0.0000000e+00
0.0000000e+00 0.0000000e+00 0.0000000e+00
0.0000000e+00 0.0000000e+00 0.0000000e+00
0.0000000e+00 0.0000000e+00 0.0000000e+00
0.0000000e+00 0.0000000e+00 0.0000000e+00
0.0000000e+00 0.0000000e+00 0.0000000e+00
0.0000000e+00 0.0000000e+00 0.0000000e+00
0.0000000e+00 0.0000000e+00 0.0000000e+00
0.0000000e+00 0.0000000e+00 0.0000000e+00
0.0000000e+00 0.0000000e+00 0.0000000e+00
0.0000000e+00 0.0000000e+00 0.0000000e+00
0.0000000e+00 0.0000000e+00 0.0000000e+00
0.0000000e+00 0.0000000e+00 0.0000000e+00
0.0000000e+00 0.0000000e+00 0.0000000e+00
0.0000000e+00 0.0000000e+00 0.0000000e+00
0.0000000e+00 0.0000000e+00 0.0000000e+00
0.0000000e+00 0.0000000e+00 0.0000000e+00
0.0000000e+00 0.0000000e+00 0.0000000e+00
0.0000000e+00 0.0000000e+00 0.0000000e+00
0.0000000e+00 0.0000000e+00 0.0000000e+00
0.0000000e+00 0.0000000e+00 0.0000000e+00
0.0000000e+00 0.0000000e+00 0.0000000e+00
0.0000000e+00 0.0000000e+00 0.0000000e+00
0.0000000e+00 0.0000000e+00 0.0000000e+00
0.0000000e+00 0.0000000e+00 0.0000000e+00
0.0000000e+00 0.0000000e+00 0.0000000e+00
0.0000000e+00 0.0000000e+00 0.0000000e+00
0.0000000e+00 0.0000000e+00 0.0000000e+00
0.0000000e+00 0.0000000e+00 0.0000000e+00
0.0000000e+00 0.0000000e+00 0.0000000e+00
0.0000000e+00 0.0000000e+00 0.0000000e+00
0.0000000e+00 0.0000000e+00 0.0000000e+00
0.0000000e+00 0.0000000e+00 0.0000000e+00
0.0000000e+00 0.0000000e+00 0.0000000e+00
0.0000000e+00 0.0000000e+00 0.0000000e+00
0.0000000e+00 0.0000000e+00 0.0000000e+00
0.0000000e+00 0.0000000e+00 0.0000000e+00
0.0000000e+00 0.0000000e+00 0.0000000e+00
0.0000000e+00 0.0000000e+00 0.0000000e+00
0.0000000e+00 0.0000000e+00 0.0000000e+00
0.0000000e+00 0.0000000e+00 0.0000000e+00
0.0000000e+00 0.0000000e+00 0.0000000e+00
0.0000000e+00 0.0000000e+00 0.0000000e+00
0.0000000e+00 0.0000000e+00 0.0000000e+00
0.0000000e+00 0.0000000e+00 0.0000000e+00
0.0000000e+00 0.0000000e+00 0.0000000e+00
0.0000000e+00 0.0000000e+00 0.0000000e+00
0.0000000e+00 0.0000000e+00 0.0000000e+00
0.0000000e+00 0.0000000e+00 0.0000000e+00
0.0000000e+00 0.0000000e+00 0.0000000e+00
0.0000000e+00 0.0000000e+00 0.0000000e+00
0.0000000e+00 0.0000000e+00 0.0000000e+00
0.0000000e+00 0.0000000e+00 0.0000000e+00
0.0000000e+00 0.0000000e+00 0.0000000e+00
0.0000000e+00 0.0000000e+00 0.0000000e+00
0.0000000e+00 0.0000000e+00 0.0000000e+00
0.0000000e+00 0.0000000e+00 0.0000000e+00
0.0000000e+00 0.0000000e+00 0.0000000e+00
0.0000000e+00 0.0000000e+00 0.0000000e+00
0.0000000e+00 0.0000000e+00 0.0000000e+00
0.0000000e+00 0.0000000e+00 0.0000000e+00
0.0000000e+00 0.0000000e+00 0.0000000e+00
0.0000000e+00 0.0000000e+00 0.0000000e+00
0.0000000e+00 0.0000000e+00 0.0000000e+00
0.0000000e+00 0.0000000e+00 0.0000000e+00
0.0000000e+00 0.0000000e+00 0.0000000e+00
0.0000000e+00 0.0000000e+00 0.0000000e+00
0.0000000e+00 0.0000000e+00 0.0000000e+00
0.0000000e+00 0.0000000e+00 0.0000000e+00
0.0000000e+00 0.0000000e+00 0.0000000e+00
0.0000000e+00 0.0000000e+00 0.0000000e+00
0.0000000e+00 0.0000000e+00 0.0000000e+00
0.0000000e+00 0.0000000e+00 0.0000000e+00
0.0000000e+00 0.0000000e+00 0.0000000e+00
0.0000000e+00 0.0000000e+00 0.0000000e+00
0.0000000e+00 0.0000000e+00 0.0000000e+00
0.0000000e+00 0.0000000e+00 0.0000000e+00
0.0000000e+00 0.0000000e+00 0.0000000e+00
0.0000000e+00 0.0000000e+00 0.0000000e+00
0.0000000e+00 0.0000000e+00 0.0000000e+00
0.0000000e+00 0.0000000e+00 0.0000000e+00
0.0000000e+00 0.0000000e+00 0.0000000e+00
0.0000000e+00 0.0000000e+00 0.0000000e+00
0.0000000e+00 0.0000000e+00 0.0000000e+00
0.0000000e+00 0.0000000e+00 0.0000000e+00
0.0000000e+00 0.0000000e+00 0.0000000e+00
0.0000000e+00 0.0000000e+00 0.0000000e+00
0.0000000e+00 0.0000000e+00 0.0000000e+00
0.0000000e+00 0.0000000e+00 0.0000000e+00
0.0000000e+00 0.0000000e+00 0.0000000e+00
0.0000000e+00 0.0000000e+00 0.0000000e+00
0.0000000e+00 0.0000000e+00 0.0000000e+00
0.0000000e+00 0.0000000e+00 0.0000000e+00
0.0000000e+00 0.0000000e+00 0.0000000e+00
0.0000000e+00 0.0000000e+00 0.0000000e+00
0.0000000e+00 0.0000000e+00 0.0000000e+00
0.0000000e+00 0.0000000e+00 0.0000000e+00
0.0000000e+00 0.0000000e+00 0.0000000e+00
0.0000000e+00 0.0000000e+00 0.0000000e+00
0.0000000e+00 0.0000000e+00 0.0000000e+00
0.0000000e+00 0.0000000e+00 0.0000000e+00
0.0000000e+00 0.0000000e+00 0.0000000e+00
0.0000000e+00 0.0000000e+00 0.0000000e+00
0.0000000e+00 0.0000000e+00 0.0000000e+00
0.0000000e+00 0.0000000e+00 0.0000000e+00
0.0000000e+00 0.0000000e+00 0.0000000e+00
0.0000000e+00 0.0000000e+00 0.0000000e+00
0.0000000e+00 0.0000000e+00 0.0000000e+00
0.0000000e+00 0.0000000e+00 0.0000000e+00
0.0000000e+00 0.0000000e+00 0.0000000e+00
0.0000000e+00 0.0000000e+00 0.0000000e+00
0.0000000e+00 0.0000000e+00 0.0000000e+00
0.0000000e+00 0.0000000e+00 0.0000000e+00
0.0000000e+00 0.0000000e+00 0.0000000e+00
0.0000000e+00 0.0000000e+00 0.0000000e+00
0.0000000e+00 0.0000000e+00 0.0000000e+00
0.0000000e+00 0.0000000e+00 0.0000000e+00
0.0000000e+00 0.0000000e+00 0.0000000e+00
0.0000000e+00 0.0000000e+00 0.0000000e+00
0.0000000e+00 0.0000000e+00 0.0000000e+00
0.0000000e+00 0.0000000e+00 0.0000000e+00
0.0000000e+00 0.0000000e+00 0.0000000e+00
0.0000000e+00 0.0000000e+00 0.0000000e+00
0.0000000e+00 0.0000000e+00 0.0000000e+00
0.0000000e+00 0.0000000e+00 0.0000000e+00
0.0000000e+00 0.0000000e+00 0.0000000e+00
0.0000000e+00 0.0000000e+00 0.0000000e+00
0.0000000e+00 0.0000000e+00 0.0000000e+00
0.0000000e+00 0.0000000e+00 0.0000000e+00
0.0000000e+00 0.0000000e+00 0.0000000e+00
0.0000000e+00 0.0000000e+00 0.0000000e+00
0.0000000e+00 0.0000000e+00 0.0000000e+00
0.0000000e+00 0.0000000e+00 0.0000000e+00
0.0000000e+00 0.0000000e+00 0.0000000e+00
0.0000000e+00 0.0000000e+00 0.0000000e+00
0.0000000e+00 0.0000000e+00 0.0000000e+00
0.0000000e+00 0.0000000e+00 0.0000000e+00
0.0000000e+00 0.0000000e+00 0.0000000e+00
0.0000000e+00 0.0000000e+00 0.0000000e+00
0.0000000e+00 0.0000000e+00 0.0000000e+00
0.0000000e+00 0.0000000e+00 0.0000000e+00
0.0000000e+00 0.0000000e+00 0.0000000e+00
0.0000000e+00 0.0000000e+00 0.0000000e+00
0.0000000e+00 0.0000000e+00 0.0000000e+00
0.0000000e+00 0.0000000e+00 0.0000000e+00
0.0000000e+00 0.0000000e+00 0.0000000e+00
0.0000000e+00 0.0000000e+00 0.0000000e+00