# vtk DataFile Version 2.0
test
ASCII
DATASET POLYDATA
POINTS 4361 float
3.9133562e+00 6.6614185e+00 1.1861721e+01
4.0159869e+00 6.7284655e+00 1.1731520e+01
4.1209929e+00 6.7953467e+00 1.1603312e+01
4.2283740e+00 6.8620621e+00 1.1477095e+01
4.3381304e+00 6.9286116e+00 1.1352870e+01
4.4502620e+00 6.9949954e+00 1.1230637e+01
4.5647688e+00 7.0612134e+00 1.1110396e+01
4.5647688e+00 7.0612134e+00 1.1110396e+01
4.6843643e+00 7.1301106e+00 1.0994234e+01
4.8107665e+00 7.1980303e+00 1.0887546e+01
4.9439755e+00 7.2649725e+00 1.0790331e+01
5.0839911e+00 7.3309372e+00 1.0702590e+01
5.2308135e+00 7.3959244e+00 1.0624323e+01
5.3844426e+00 7.4599341e+00 1.0555530e+01
5.3844426e+00 7.4599341e+00 1.0555530e+01
5.5472470e+00 7.5203437e+00 1.0506329e+01
5.7124451e+00 7.5774374e+00 1.0470285e+01
5.8800370e+00 7.6312151e+00 1.0447397e+01
6.0500226e+00 7.6816769e+00 1.0437665e+01
6.2224020e+00 7.7288228e+00 1.0441090e+01
6.3971751e+00 7.7726528e+00 1.0457671e+01
6.3971751e+00 7.7726528e+00 1.0457671e+01
6.5704093e+00 7.8120182e+00 1.0480703e+01
6.7435137e+00 7.8484570e+00 1.0507515e+01
6.9164882e+00 7.8819694e+00 1.0538108e+01
7.0893329e+00 7.9125552e+00 1.0572481e+01
7.2620476e+00 7.9402146e+00 1.0610633e+01
7.4346326e+00 7.9649474e+00 1.0652567e+01
7.4346326e+00 7.9649474e+00 1.0652567e+01
7.6074520e+00 7.9872932e+00 1.0694774e+01
7.7812119e+00 8.0071316e+00 1.0733048e+01
7.9559122e+00 8.0244627e+00 1.0767389e+01
8.1315531e+00 8.0392864e+00 1.0797797e+01
8.3081345e+00 8.0516027e+00 1.0824272e+01
8.4856563e+00 8.0614117e+00 1.0846814e+01
8.4856563e+00 8.0614117e+00 1.0846814e+01
8.6659363e+00 8.0683034e+00 1.0860530e+01
8.8446080e+00 8.0725400e+00 1.0860713e+01
9.0216714e+00 8.0741213e+00 1.0847362e+01
9.1971265e+00 8.0730474e+00 1.0820477e+01
9.3709733e+00 8.0693183e+00 1.0780058e+01
9.5432118e+00 8.0629340e+00 1.0726106e+01
9.5432118e+00 8.0629340e+00 1.0726106e+01
9.7081364e+00 8.0538323e+00 1.0653608e+01
9.8655498e+00 8.0435910e+00 1.0570130e+01
1.0015452e+01 8.0322101e+00 1.0475671e+01
1.0157843e+01 8.0196896e+00 1.0370231e+01
1.0292723e+01 8.0060295e+00 1.0253810e+01
1.0420092e+01 7.9912297e+00 1.0126408e+01
1.0420092e+01 7.9912297e+00 1.0126408e+01
1.0538453e+01 7.9811013e+00 9.9924955e+00
1.0654521e+01 7.9700801e+00 9.8567773e+00
1.0768296e+01 7.9581662e+00 9.7192535e+00
1.0879776e+01 7.9453595e+00 9.5799242e+00
1.0988963e+01 7.9316601e+00 9.4387893e+00
1.1095857e+01 7.9170679e+00 9.2958489e+00
1.1095857e+01 7.9170679e+00 9.2958489e+00
1.0997319e+01 7.8509292e+00 9.1552916e+00
1.0899651e+01 7.7834379e+00 9.0148027e+00
1.0802851e+01 7.7145942e+00 8.8743822e+00
1.0706920e+01 7.6443980e+00 8.7340302e+00
1.0611858e+01 7.5728492e+00 8.5937467e+00
1.0517665e+01 7.4999480e+00 8.4535315e+00
1.0517665e+01 7.4999480e+00 8.4535315e+00
1.0425454e+01 7.4309531e+00 8.3097501e+00
1.0337693e+01 7.3607084e+00 8.1641788e+00
1.0254383e+01 7.2892139e+00 8.0168176e+00
1.0175523e+01 7.2164695e+00 7.8676665e+00
1.0101113e+01 7.1424753e+00 7.7167255e+00
1.0031154e+01 7.0672312e+00 7.5639947e+00
1.0031154e+01 7.0672312e+00 7.5639947e+00
9.9682934e+00 6.9902508e+00 7.4082831e+00
9.9142338e+00 6.9111687e+00 7.2514446e+00
9.8689755e+00 6.8299849e+00 7.0934793e+00
9.8325184e+00 6.7466993e+00 6.9343870e+00
9.8048626e+00 6.6613121e+00 6.7741678e+00
9.7860081e+00 6.5738231e+00 6.6128216e+00
9.7860081e+00 6.5738231e+00 6.6128216e+00
9.7791639e+00 6.4842799e+00 6.4515699e+00
9.7826815e+00 6.3935223e+00 6.2922514e+00
9.7965608e+00 6.3015502e+00 6.1348663e+00
9.8208018e+00 6.2083636e+00 5.9794145e+00
9.8554045e+00 6.1139625e+00 5.8258961e+00
9.9003689e+00 6.0183470e+00 5.6743109e+00
9.9003689e+00 6.0183470e+00 5.6743109e+00
9.9535458e+00 5.9223455e+00 5.5266456e+00
1.0012341e+01 5.8257038e+00 5.3821340e+00
1.0076755e+01 5.7284222e+00 5.2407760e+00
1.0146788e+01 5.6305004e+00 5.1025717e+00
1.0222439e+01 5.5319385e+00 4.9675211e+00
1.0303709e+01 5.4327365e+00 4.8356241e+00
1.0303709e+01 5.4327365e+00 4.8356241e+00
1.0387949e+01 5.3333275e+00 4.7063009e+00
1.0473751e+01 5.2329123e+00 4.5789005e+00
1.0561114e+01 5.1314909e+00 4.4534229e+00
1.0650038e+01 5.0290632e+00 4.3298681e+00
1.0740523e+01 4.9256292e+00 4.2082361e+00
1.0832570e+01 4.8211890e+00 4.0885269e+00
1.0832570e+01 4.8211890e+00 4.0885269e+00
1.0924288e+01 4.7148448e+00 3.9703293e+00
1.1014138e+01 4.6062542e+00 3.8528113e+00
1.1102120e+01 4.4954170e+00 3.7359728e+00
1.1188234e+01 4.3823335e+00 3.6198139e+00
1.1272480e+01 4.2670035e+00 3.5043345e+00
1.1354858e+01 4.1494271e+00 3.3895347e+00
1.1354858e+01 4.1494271e+00 3.3895347e+00
1.1433589e+01 4.0290134e+00 3.2745480e+00
1.1506162e+01 3.9055238e+00 3.1596091e+00
1.1572579e+01 3.7789581e+00 3.0447178e+00
1.1632838e+01 3.6493164e+00 2.9298743e+00
1.1686940e+01 3.5165986e+00 2.8150786e+00
1.1734884e+01 3.3808048e+00 2.7003305e+00
1.1734884e+01 3.3808048e+00 2.7003305e+00
1.1774687e+01 3.2410050e+00 2.5861773e+00
1.1804392e+01 3.0993588e+00 2.4730682e+00
1.1823998e+01 2.9558662e+00 2.3610033e+00
1.1833505e+01 2.8105272e+00 2.2499826e+00
1.1832913e+01 2.6633418e+00 2.1400060e+00
1.1822223e+01 2.5143101e+00 2.0310736e+00
1.1822223e+01 2.5143101e+00 2.0310736e+00
1.1799305e+01 2.3661036e+00 1.9232446e+00
1.1767871e+01 2.2188153e+00 1.8176958e+00
1.1727921e+01 2.0724452e+00 1.7144270e+00
1.1679455e+01 1.9269933e+00 1.6134384e+00
1.1622473e+01 1.7824596e+00 1.5147298e+00
1.1556975e+01 1.6388441e+00 1.4183014e+00
1.1556975e+01 1.6388441e+00 1.4183014e+00
1.1484321e+01 1.4974475e+00 1.3247051e+00
1.1407541e+01 1.3572974e+00 1.2330133e+00
1.1326635e+01 1.2183938e+00 1.1432260e+00
1.1241603e+01 1.0807367e+00 1.0553433e+00
1.1152445e+01 9.4432610e-01 9.6936505e-01
1.1059161e+01 8.0916199e-01 8.8529137e-01
1.1059161e+01 8.0916199e-01 8.8529137e-01
1.0964495e+01 6.7406561e-01 8.0281375e-01
1.0868846e+01 5.3933324e-01 7.2091057e-01
1.0772214e+01 4.0496487e-01 6.3958183e-01
1.0674598e+01 2.7096051e-01 5.5882753e-01
1.0576000e+01 1.3732016e-01 4.7864767e-01
1.0476418e+01 4.0438100e-03 3.9904225e-01
1.7597600e+00 5.4835921e+00 1.1684818e+01
1.7319563e+00 5.4447682e+00 1.1498836e+01
1.7057249e+00 5.4042224e+00 1.1313056e+01
1.6810658e+00 5.3619545e+00 1.1127480e+01
1.6579790e+00 5.3179647e+00 1.0942107e+01
1.6364645e+00 5.2722530e+00 1.0756936e+01
1.6165222e+00 5.2248193e+00 1.0571969e+01
1.6165222e+00 5.2248193e+00 1.0571969e+01
1.6025693e+00 5.1804876e+00 1.0385133e+01
1.5961261e+00 5.1341238e+00 1.0199089e+01
1.5971926e+00 5.0857281e+00 1.0013836e+01
1.6057688e+00 5.0353003e+00 9.8293751e+00
1.6218548e+00 4.9828406e+00 9.6457053e+00
1.6454506e+00 4.9283489e+00 9.4628269e+00
1.6454506e+00 4.9283489e+00 9.4628269e+00
1.6822949e+00 4.8699224e+00 9.2823266e+00
1.7301686e+00 4.8088261e+00 9.1072160e+00
1.7890716e+00 4.7450600e+00 8.9374951e+00
1.8590038e+00 4.6786240e+00 8.7731639e+00
1.9399654e+00 4.6095181e+00 8.6142224e+00
2.0319562e+00 4.5377425e+00 8.4606706e+00
2.0319562e+00 4.5377425e+00 8.4606706e+00
2.1360662e+00 4.4635650e+00 8.3167497e+00
2.2475707e+00 4.3880626e+00 8.1809042e+00
2.3664696e+00 4.3112353e+00 8.0531343e+00
2.4927630e+00 4.2330830e+00 7.9334398e+00
2.6264509e+00 4.1536058e+00 7.8218208e+00
2.7675333e+00 4.0728037e+00 7.7182772e+00
2.7675333e+00 4.0728037e+00 7.7182772e+00
2.9098051e+00 3.9916279e+00 7.6189828e+00
3.0530788e+00 3.9090597e+00 7.5225603e+00
3.1973542e+00 3.8250992e+00 7.4290099e+00
3.3426315e+00 3.7397463e+00 7.3383313e+00
3.4889106e+00 3.6530011e+00 7.2505248e+00
3.6361915e+00 3.5648636e+00 7.1655902e+00
3.6361915e+00 3.5648636e+00 7.1655902e+00
3.7837925e+00 3.4747716e+00 7.0830159e+00
3.9288908e+00 3.3819903e+00 6.9993623e+00
4.0714862e+00 3.2865199e+00 6.9146295e+00
4.2115789e+00 3.1883601e+00 6.8288173e+00
4.3491688e+00 3.0875112e+00 6.7419259e+00
4.4842559e+00 2.9839729e+00 6.6539552e+00
4.4842559e+00 2.9839729e+00 6.6539552e+00
4.6152491e+00 2.8769387e+00 6.5622140e+00
4.7379974e+00 2.7661623e+00 6.4658414e+00
4.8525008e+00 2.6516439e+00 6.3648372e+00
4.9587592e+00 2.5333834e+00 6.2592015e+00
5.0567727e+00 2.4113808e+00 6.1489343e+00
5.1465412e+00 2.2856361e+00 6.0340357e+00
5.1465412e+00 2.2856361e+00 6.0340357e+00
5.2214682e+00 2.1555278e+00 5.9122459e+00
5.2835024e+00 2.0247576e+00 5.7868689e+00
5.3326438e+00 1.8933256e+00 5.6579046e+00
5.3688925e+00 1.7612319e+00 5.5253529e+00
5.3922484e+00 1.6284763e+00 5.3892140e+00
5.4027116e+00 1.4950589e+00 5.2494878e+00
5.4027116e+00 1.4950589e+00 5.2494878e+00
5.4011770e+00 1.3646339e+00 5.1079558e+00
5.3922608e+00 1.2356531e+00 4.9661084e+00
5.3759631e+00 1.1081163e+00 4.8239456e+00
5.3522839e+00 9.8202368e-01 4.6814673e+00
5.3212231e+00 8.5737515e-01 4.5386736e+00
5.2827808e+00 7.3417073e-01 4.3955644e+00
5.2827808e+00 7.3417073e-01 4.3955644e+00
5.2412314e+00 6.1097921e-01 4.2541350e+00
5.1979122e+00 4.8818690e-01 4.1128511e+00
5.1528231e+00 3.6579382e-01 3.9717128e+00
5.1059641e+00 2.4379997e-01 3.8307201e+00
5.0573353e+00 1.2220533e-01 3.6898730e+00
5.0069366e+00 1.0099200e-03 3.5491715e+00
5.4178600e-01 5.2683484e+00 1.3911597e+01
5.9991479e-01 5.3727852e+00 1.3755807e+01
6.7104681e-01 5.4776455e+00 1.3609993e+01
7.5518207e-01 5.5829292e+00 1.3474154e+01
8.5232056e-01 5.6886363e+00 1.3348291e+01
9.6246228e-01 5.7947669e+00 1.3232404e+01
1.0856072e+00 5.9013209e+00 1.3126492e+01
1.0856072e+00 5.9013209e+00 1.3126492e+01
1.2423052e+00 5.9990041e+00 1.3064023e+01
1.4057201e+00 6.0872296e+00 1.3016695e+01
1.5758520e+00 6.1659974e+00 1.2984508e+01
1.7527007e+00 6.2353074e+00 1.2967462e+01
1.9362664e+00 6.2951598e+00 1.2965558e+01
2.1265490e+00 6.3455544e+00 1.2978795e+01
2.1265490e+00 6.3455544e+00 1.2978795e+01
2.3181872e+00 6.3904844e+00 1.2991469e+01
2.5065824e+00 6.4318519e+00 1.2985515e+01
2.6917348e+00 6.4696569e+00 1.2960933e+01
2.8736442e+00 6.5038994e+00 1.2917724e+01
3.0523108e+00 6.5345794e+00 1.2855886e+01
3.2277345e+00 6.5616968e+00 1.2775421e+01
3.2277345e+00 6.5616968e+00 1.2775421e+01
3.3729533e+00 6.5849000e+00 1.2648374e+01
3.5057927e+00 6.6054701e+00 1.2511232e+01
3.6262527e+00 6.6234069e+00 1.2363996e+01
3.7343333e+00 6.6387106e+00 1.2206666e+01
[...]
POINT_DATA 4361
VECTORS U float
6.1645400e-01 1.9857000e-01 -5.5366700e-03
6.2324911e-01 1.9412089e-01 -2.0431556e-03
6.2978411e-01 1.8918322e-01 1.1229178e-03
6.3605900e-01 1.8375700e-01 3.9615500e-03
6.4207378e-01 1.7784222e-01 6.4727411e-03
6.4782844e-01 1.7143889e-01 8.6564911e-03
6.5332300e-01 1.6454700e-01 1.0512800e-02
6.5332300e-01 1.6454700e-01 1.0512800e-02
6.5772867e-01 1.5913644e-01 1.2226133e-02
6.6175067e-01 1.5321611e-01 1.3287700e-02
6.6538900e-01 1.4678600e-01 1.3697500e-02
6.6864367e-01 1.3984611e-01 1.3455533e-02
6.7151467e-01 1.3239644e-01 1.2561800e-02
6.7400200e-01 1.2443700e-01 1.1016300e-02
6.7400200e-01 1.2443700e-01 1.1016300e-02
6.7716567e-01 1.1557801e-01 1.0517533e-02
6.7997667e-01 1.0726604e-01 1.0402233e-02
6.8243500e-01 9.9501100e-02 1.0670400e-02
6.8454067e-01 9.2283178e-02 1.1322033e-02
6.8629367e-01 8.5612278e-02 1.2357133e-02
6.8769400e-01 7.9488400e-02 1.3775700e-02
6.8769400e-01 7.9488400e-02 1.3775700e-02
6.8897922e-01 7.3506522e-02 1.3379578e-02
6.9007922e-01 6.7990122e-02 1.3088078e-02
6.9099400e-01 6.2939200e-02 1.2901200e-02
6.9172356e-01 5.8353756e-02 1.2818944e-02
6.9226789e-01 5.4233789e-02 1.2841311e-02
6.9262700e-01 5.0579300e-02 1.2968300e-02
6.9262700e-01 5.0579300e-02 1.2968300e-02
6.9276989e-01 4.7160744e-02 1.3529944e-02
6.9285222e-01 4.3991178e-02 1.4210578e-02
6.9287400e-01 4.1070600e-02 1.5010200e-02
6.9283522e-01 3.8399011e-02 1.5928811e-02
6.9273589e-01 3.5976411e-02 1.6966411e-02
6.9257600e-01 3.3802800e-02 1.8123000e-02
6.9257600e-01 3.3802800e-02 1.8123000e-02
6.9246811e-01 3.1568800e-02 1.9176622e-02
6.9231678e-01 2.9693400e-02 1.9890456e-02
6.9212200e-01 2.8176600e-02 2.0264500e-02
6.9188378e-01 2.7018400e-02 2.0298756e-02
6.9160211e-01 2.6218800e-02 1.9993222e-02
6.9127700e-01 2.5777800e-02 1.9347900e-02
6.9127700e-01 2.5777800e-02 1.9347900e-02
6.9113067e-01 2.5774656e-02 1.9061796e-02
6.9030333e-01 2.6260856e-02 1.8048729e-02
6.8879500e-01 2.7236400e-02 1.6308700e-02
6.8660567e-01 2.8701289e-02 1.3841709e-02
6.8373533e-01 3.0655522e-02 1.0647756e-02
6.8018400e-01 3.3099100e-02 6.7268400e-03
6.8018400e-01 3.3099100e-02 6.7268400e-03
6.7393433e-01 4.0647333e-02 4.7037778e-04
6.6803033e-01 4.7602433e-02 -5.2737689e-03
6.6247200e-01 5.3964400e-02 -1.0505600e-02
6.5725933e-01 5.9733233e-02 -1.5225116e-02
6.5239233e-01 6.4908933e-02 -1.9432316e-02
6.4787100e-01 6.9491500e-02 -2.3127200e-02
6.4787100e-01 6.9491500e-02 -2.3127200e-02
6.4419533e-01 6.7000678e-02 -1.9444644e-02
6.4004600e-01 6.3671978e-02 -1.5084478e-02
6.3542300e-01 5.9505400e-02 -1.0046700e-02
6.3032633e-01 5.4500944e-02 -4.3313111e-03
6.2475600e-01 4.8658611e-02 2.0616889e-03
6.1871200e-01 4.1978400e-02 9.1323000e-03
6.1871200e-01 4.1978400e-02 9.1323000e-03
6.1213400e-01 4.0255533e-02 1.3972844e-02
6.0523800e-01 3.8841467e-02 1.8582344e-02
5.9802400e-01 3.7736200e-02 2.2960800e-02
5.9049200e-01 3.6939733e-02 2.7108211e-02
5.8264200e-01 3.6452067e-02 3.1024578e-02
5.7447400e-01 3.6273200e-02 3.4709900e-02
5.7447400e-01 3.6273200e-02 3.4709900e-02
5.6633044e-01 3.6643556e-02 3.7695833e-02
5.5768811e-01 3.6952289e-02 4.0303533e-02
5.4854700e-01 3.7199400e-02 4.2533000e-02
5.3890711e-01 3.7384889e-02 4.4384233e-02
5.2876844e-01 3.7508756e-02 4.5857233e-02
5.1813100e-01 3.7571000e-02 4.6952000e-02
5.1813100e-01 3.7571000e-02 4.6952000e-02
5.0712878e-01 3.7489500e-02 4.7401644e-02
4.9660911e-01 3.7171067e-02 4.7397711e-02
4.8657200e-01 3.6615700e-02 4.6940200e-02
4.7701744e-01 3.5823400e-02 4.6029111e-02
4.6794544e-01 3.4794167e-02 4.4664444e-02
4.5935600e-01 3.3528000e-02 4.2846200e-02
4.5935600e-01 3.3528000e-02 4.2846200e-02
4.5083522e-01 3.1978467e-02 4.0870500e-02
4.4256122e-01 3.0182033e-02 3.8871033e-02
4.3453400e-01 2.8138700e-02 3.6847800e-02
4.2675356e-01 2.5848467e-02 3.4800800e-02
4.1921989e-01 2.3311333e-02 3.2730033e-02
4.1193300e-01 2.0527300e-02 3.0635500e-02
4.1193300e-01 2.0527300e-02 3.0635500e-02
4.0475033e-01 1.7958783e-02 2.8304456e-02
3.9761500e-01 1.5392350e-02 2.5900389e-02
3.9052700e-01 1.2828000e-02 2.3423300e-02
3.8348633e-01 1.0265733e-02 2.0873189e-02
3.7649300e-01 7.7055500e-03 1.8250056e-02
3.6954700e-01 5.1474500e-03 1.5553900e-02
3.6954700e-01 5.1474500e-03 1.5553900e-02
3.6227633e-01 2.1318556e-03 1.3097083e-02
3.5465933e-01 -1.0262778e-03 1.0578370e-02
3.4669600e-01 -4.3269500e-03 7.9977600e-03
3.3838633e-01 -7.7701611e-03 5.3552538e-03
3.2973033e-01 -1.1355911e-02 2.6508511e-03
3.2072800e-01 -1.5084200e-02 -1.1544800e-04
3.2072800e-01 -1.5084200e-02 -1.1544800e-04
3.1095300e-01 -1.8816533e-02 -3.1216433e-03
3.0040167e-01 -2.2438567e-02 -6.0509640e-03
2.8907400e-01 -2.5950300e-02 -8.9034100e-03
2.7697000e-01 -2.9351733e-02 -1.1678981e-02
2.6408967e-01 -3.2642867e-02 -1.4377678e-02
2.5043300e-01 -3.5823700e-02 -1.6999500e-02
2.5043300e-01 -3.5823700e-02 -1.6999500e-02
2.3678878e-01 -3.8976700e-02 -1.8587244e-02
2.2293378e-01 -4.1512000e-02 -1.9770911e-02
2.0886800e-01 -4.3429600e-02 -2.0550500e-02
1.9459144e-01 -4.4729500e-02 -2.0926011e-02
1.8010411e-01 -4.5411700e-02 -2.0897444e-02
1.6540600e-01 -4.5476200e-02 -2.0464800e-02
1.6540600e-01 -4.5476200e-02 -2.0464800e-02
1.5086196e-01 -4.3773322e-02 -2.0698100e-02
1.3710596e-01 -4.1660756e-02 -2.0747033e-02
1.2413800e-01 -3.9138500e-02 -2.0611600e-02
1.1195809e-01 -3.6206556e-02 -2.0291800e-02
1.0056622e-01 -3.2864922e-02 -1.9787633e-02
8.9962400e-02 -2.9113600e-02 -1.9099100e-02
8.9962400e-02 -2.9113600e-02 -1.9099100e-02
7.9276511e-02 -2.5134324e-02 -1.8118833e-02
6.9233578e-02 -2.1269191e-02 -1.6967033e-02
5.9833600e-02 -1.7518200e-02 -1.5643700e-02
5.1076578e-02 -1.3881351e-02 -1.4148833e-02
4.2962511e-02 -1.0358644e-02 -1.2482433e-02
3.5491400e-02 -6.9500800e-03 -1.0644500e-02
3.5491400e-02 -6.9500800e-03 -1.0644500e-02
2.9154283e-02 -4.6720428e-03 -8.4171911e-03
2.3176383e-02 -2.5722944e-03 -6.2002778e-03
1.7557700e-02 -6.5083500e-04 -3.9937600e-03
1.2298233e-02 1.0923356e-03 -1.7976378e-03
7.3979833e-03 2.6572172e-03 3.8808889e-04
2.8569500e-03 4.0438100e-03 2.5634200e-03
5.4164000e-01 2.7208000e-01 4.0263200e-02
5.3642322e-01 2.6948733e-01 4.1801611e-02
5.3047856e-01 2.6575900e-01 4.3623644e-02
5.2380600e-01 2.6089500e-01 4.5729300e-02
5.1640556e-01 2.5489533e-01 4.8118578e-02
5.0827722e-01 2.4776000e-01 5.0791478e-02
4.9942100e-01 2.3948900e-01 5.3748000e-02
4.9942100e-01 2.3948900e-01 5.3748000e-02
4.9206189e-01 2.3552444e-01 5.5439922e-02
4.8425089e-01 2.3137644e-01 5.6868189e-02
4.7598800e-01 2.2704500e-01 5.8032800e-02
4.6727322e-01 2.2253011e-01 5.8933756e-02
4.5810656e-01 2.1783178e-01 5.9571056e-02
4.4848800e-01 2.1295000e-01 5.9944700e-02
4.4848800e-01 2.1295000e-01 5.9944700e-02
4.3937267e-01 2.0693367e-01 6.0248544e-02
4.2965133e-01 2.0044033e-01 5.9894678e-02
4.1932400e-01 1.9347000e-01 5.8883100e-02
4.0839067e-01 1.8602267e-01 5.7213811e-02
3.9685133e-01 1.7809833e-01 5.4886811e-02
3.8470600e-01 1.6969700e-01 5.1902100e-02
3.8470600e-01 1.6969700e-01 5.1902100e-02
3.7378667e-01 1.6045111e-01 4.8571244e-02
3.6415067e-01 1.5117878e-01 4.6170244e-02
3.5579800e-01 1.4188000e-01 4.4699100e-02
3.4872867e-01 1.3255478e-01 4.4157811e-02
3.4294267e-01 1.2320311e-01 4.4546378e-02
3.3844000e-01 1.1382500e-01 4.5864800e-02
3.3844000e-01 1.1382500e-01 4.5864800e-02
3.3279967e-01 1.0506422e-01 4.5939089e-02
3.2707067e-01 9.6558822e-02 4.5732622e-02
3.2125300e-01 8.8308800e-02 4.5245400e-02
3.1534667e-01 8.0314156e-02 4.4477422e-02
3.0935167e-01 7.2574889e-02 4.3428689e-02
3.0326800e-01 6.5091000e-02 4.2099200e-02
3.0326800e-01 6.5091000e-02 4.2099200e-02
2.9801000e-01 5.7699478e-02 4.2049211e-02
2.9246167e-01 5.0513544e-02 4.1674111e-02
2.8662300e-01 4.3533200e-02 4.0973900e-02
2.8049400e-01 3.6758444e-02 3.9948578e-02
2.7407467e-01 3.0189278e-02 3.8598144e-02
2.6736500e-01 2.3825700e-02 3.6922600e-02
2.6736500e-01 2.3825700e-02 3.6922600e-02
2.6011144e-01 1.7926248e-02 3.4355444e-02
2.5203744e-01 1.2303584e-02 3.1494744e-02
2.4314300e-01 6.9577100e-03 2.8340500e-02
2.3342811e-01 1.8886244e-03 2.4892711e-02
2.2289278e-01 -2.9036722e-03 2.1151378e-02
2.1153700e-01 -7.4191800e-03 1.7116500e-02
2.1153700e-01 -7.4191800e-03 1.7116500e-02
1.9775722e-01 -1.1683378e-02 1.2908460e-02
1.8364622e-01 -1.5052151e-02 9.1804263e-03
1.6920400e-01 -1.7525500e-02 5.9324000e-03
1.5443056e-01 -1.9103424e-02 3.1643807e-03
1.3932589e-01 -1.9785924e-02 8.7636833e-04
1.2389000e-01 -1.9573000e-02 -9.3163700e-04
1.2389000e-01 -1.9573000e-02 -9.3163700e-04
1.0955001e-01 -1.7757586e-02 -2.8421317e-03
9.5952044e-02 -1.5690986e-02 -4.3591727e-03
8.3096100e-02 -1.3373200e-02 -5.4827600e-03
7.0982178e-02 -1.0804229e-02 -6.2128937e-03
5.9610278e-02 -7.9840722e-03 -6.5495737e-03
4.8980400e-02 -4.9127300e-03 -6.4928000e-03
4.8980400e-02 -4.9127300e-03 -6.4928000e-03
3.9653181e-02 -3.3668950e-03 -5.1834689e-03
3.0847281e-02 -2.0445507e-03 -3.7899456e-03
2.2562700e-02 -9.4569700e-04 -2.3122300e-03
1.4799438e-02 -7.0334000e-05 -7.5032222e-04
7.5574950e-03 5.8153833e-04 8.9577778e-04
8.3687100e-04 1.0099200e-03 2.6260700e-03
5.4178600e-01 2.9864400e-01 -8.1860000e-03
5.4921733e-01 3.0000667e-01 -4.5889889e-03
5.5628900e-01 3.0035733e-01 -1.1595756e-03
5.6300100e-01 2.9969600e-01 2.1022400e-03
5.6935333e-01 2.9802267e-01 5.1964578e-03
5.7534600e-01 2.9533733e-01 8.1230778e-03
5.8097900e-01 2.9164000e-01 1.0882100e-02
5.8097900e-01 2.9164000e-01 1.0882100e-02
5.8588333e-01 2.8485922e-01 1.2473534e-02
5.9041767e-01 2.7740922e-01 1.3127001e-02
5.9458200e-01 2.6929000e-01 1.2842500e-02
5.9837633e-01 2.6050156e-01 1.1620031e-02
6.0180067e-01 2.5104389e-01 9.4595944e-03
6.0485500e-01 2.4091700e-01 6.3611900e-03
6.0485500e-01 2.4091700e-01 6.3611900e-03
6.0771144e-01 2.3008489e-01 3.6665578e-03
6.0995644e-01 2.2055256e-01 1.1971644e-03
6.1159000e-01 2.1232000e-01 -1.0469900e-03
6.1261211e-01 2.0538722e-01 -3.0659056e-03
6.1302278e-01 1.9975422e-01 -4.8595822e-03
6.1282200e-01 1.9542100e-01 -6.4280200e-03
6.1282200e-01 1.9542100e-01 -6.4280200e-03
6.1219844e-01 1.9517222e-01 -7.1669200e-03
6.1206644e-01 1.9523289e-01 -7.5508367e-03
6.1242600e-01 1.9560300e-01 -7.5797700e-03
6.1327711e-01 1.9628256e-01 -7.2537200e-03
6.1461978e-01 1.9727156e-01 -6.5726867e-03
6.1645400e-01 1.9857000e-01 -5.5366700e-03
5.2260900e-01 2.9028400e-01 1.4804900e-02
5.2726000e-01 2.8933111e-01 2.1044867e-02
5.3131933e-01 2.8754578e-01 2.6486067e-02
5.3478700e-01 2.8492800e-01 3.1128500e-02
5.3766300e-01 2.8147778e-01 3.4972167e-02
5.3994733e-01 2.7719511e-01 3.8017067e-02
5.4164000e-01 2.7208000e-01 4.0263200e-02
6.4787100e-01 6.9491500e-02 -2.3127200e-02
6.4301733e-01 6.1536389e-02 -2.2249522e-02
6.3804633e-01 5.3955922e-02 -2.1177422e-02
6.3295800e-01 4.6750100e-02 -1.9910900e-02
6.2775233e-01 3.9918922e-02 -1.8449956e-02
6.2242933e-01 3.3462389e-02 -1.6794589e-02
6.1698900e-01 2.7380500e-02 -1.4944800e-02
6.1698900e-01 2.7380500e-02 -1.4944800e-02
6.1404256e-01 2.3707752e-02 -1.4589889e-02
6.1037322e-01 2.0295486e-02 -1.3531256e-02
6.0598100e-01 1.7143700e-02 -1.1768900e-02
6.0086589e-01 1.4252396e-02 -9.3028222e-03
5.9502789e-01 1.1621572e-02 -6.1330222e-03
5.8846700e-01 9.2512300e-03 -2.2595000e-03
5.8846700e-01 9.2512300e-03 -2.2595000e-03
5.8122656e-01 6.4360367e-03 1.0728111e-03
5.7374222e-01 3.9855667e-03 4.1583444e-03
5.6601400e-01 1.8998200e-03 6.9971000e-03
5.5804189e-01 1.7879667e-04 9.5890778e-03
5.4982589e-01 -1.1775033e-03 1.1934278e-02
5.4136600e-01 -2.1690800e-03 1.4032700e-02
5.4136600e-01 -2.1690800e-03 1.4032700e-02
5.2915022e-01 -3.2704844e-03 1.6097722e-02
5.1658922e-01 -4.1437644e-03 1.7567489e-02
5.0368300e-01 -4.7889200e-03 1.8442000e-02
4.9043156e-01 -5.2059511e-03 1.8721256e-02
4.7683489e-01 -5.3948578e-03 1.8405256e-02
4.6289300e-01 -5.3556400e-03 1.7494000e-02
4.6289300e-01 -5.3556400e-03 1.7494000e-02
4.5117933e-01 -4.4091300e-03 1.6723422e-02
4.3956767e-01 -3.1990133e-03 1.5781256e-02
4.2805800e-01 -1.7252900e-03 1.4667500e-02
4.1665033e-01 1.2040000e-05 1.3382156e-02
4.0534467e-01 2.0129767e-03 1.1925222e-02
3.9414100e-01 4.2775200e-03 1.0296700e-02
3.9414100e-01 4.2775200e-03 1.0296700e-02
3.8278478e-01 6.0948222e-03 8.1765467e-03
3.7127444e-01 8.0958489e-03 6.0657900e-03
3.5961000e-01 1.0280600e-02 3.9644300e-03
3.4779144e-01 1.2649076e-02 1.8724667e-03
3.3581878e-01 1.5201276e-02 -2.1010000e-04
3.2369200e-01 1.7937200e-02 -2.2832700e-03
3.2369200e-01 1.7937200e-02 -2.2832700e-03
3.1267011e-01 2.0194878e-02 -4.2534244e-03
3.0084544e-01 2.2693478e-02 -5.8794311e-03
2.8821800e-01 2.5433000e-02 -7.1612900e-03
2.7478778e-01 2.8413444e-02 -8.0990011e-03
2.6055478e-01 3.1634811e-02 -8.6925644e-03
2.4551900e-01 3.5097100e-02 -8.9419800e-03
2.4551900e-01 3.5097100e-02 -8.9419800e-03
2.2784989e-01 3.9594278e-02 -8.0159289e-03
2.1093689e-01 4.3127278e-02 -6.9661522e-03
1.9478000e-01 4.5696100e-02 -5.7926500e-03
1.7937922e-01 4.7300744e-02 -4.4954222e-03
1.6473456e-01 4.7941211e-02 -3.0744689e-03
1.5084600e-01 4.7617500e-02 -1.5297900e-03
1.5084600e-01 4.7617500e-02 -1.5297900e-03
1.3616978e-01 4.6064189e-02 -2.8192222e-05
1.2249611e-01 4.4021156e-02 1.2670711e-03
1.0982500e-01 4.1488400e-02 2.3560000e-03
9.8156444e-02 3.8465922e-02 3.2385944e-03
8.7490444e-02 3.4953722e-02 3.9148544e-03
7.7827000e-02 3.0951800e-02 4.3847800e-03
7.7827000e-02 3.0951800e-02 4.3847800e-03
6.8827267e-02 2.7214671e-02 5.2115222e-03
6.0241467e-02 2.3557638e-02 6.0030756e-03
5.2069600e-02 1.9980700e-02 6.7594400e-03
4.4311667e-02 1.6483858e-02 7.4806156e-03
3.6967667e-02 1.3067111e-02 8.1666022e-03
3.0037600e-02 9.7304600e-03 8.8174000e-03
3.0037600e-02 9.7304600e-03 8.8174000e-03
2.6053867e-02 8.2735367e-03 7.2345607e-03
2.2004367e-02 6.4977367e-03 5.7259573e-03
1.7889100e-02 4.4030600e-03 4.2915900e-03
1.3708067e-02 1.9895067e-03 2.9314587e-03
9.4612667e-03 -7.4292333e-04 1.6455633e-03
5.1487000e-03 -3.7942300e-03 4.3390400e-04
2.0678500e+00 1.5053400e-01 5.2010700e-02
2.0647300e+00 1.3938581e-01 5.5626433e-02
2.0612933e+00 1.2854848e-01 5.9150033e-02
2.0575400e+00 1.1802200e-01 6.2581500e-02
2.0534700e+00 1.0780638e-01 6.5920833e-02
2.0490833e+00 9.7901611e-02 6.9168033e-02
2.0443800e+00 8.8307700e-02 7.2323100e-02
2.0443800e+00 8.8307700e-02 7.2323100e-02
2.0402622e+00 8.1946167e-02 7.4266022e-02
2.0361022e+00 7.7338367e-02 7.6084989e-02
2.0319000e+00 7.4484300e-02 7.7780000e-02
2.0276556e+00 7.3383967e-02 7.9351056e-02
2.0233689e+00 7.4037367e-02 8.0798156e-02
2.0190400e+00 7.6444500e-02 8.2121300e-02
2.0190400e+00 7.6444500e-02 8.2121300e-02
2.0144867e+00 7.8606044e-02 8.3309211e-02
2.0092867e+00 8.0981544e-02 8.4607144e-02
2.0034400e+00 8.3571000e-02 8.6015100e-02
1.9969467e+00 8.6374411e-02 8.7533078e-02
1.9898067e+00 8.9391778e-02 8.9161078e-02
1.9820200e+00 9.2623100e-02 9.0899100e-02
1.9820200e+00 9.2623100e-02 9.0899100e-02
1.9716333e+00 9.6105633e-02 9.3752000e-02
1.9617667e+00 9.7951933e-02 9.6507467e-02
1.9524200e+00 9.8162000e-02 9.9165500e-02
1.9435933e+00 9.6735833e-02 1.0172610e-01
1.9352867e+00 9.3673433e-02 1.0418927e-01
1.9275000e+00 8.8974800e-02 1.0655500e-01
1.9275000e+00 8.8974800e-02 1.0655500e-01
1.9214344e+00 8.3646789e-02 1.0759078e-01
1.9156944e+00 7.8064989e-02 1.0782378e-01
1.9102800e+00 7.2229400e-02 1.0725400e-01
1.9051911e+00 6.6140022e-02 1.0588144e-01
1.9004278e+00 5.9796856e-02 1.0370611e-01
1.8959900e+00 5.3199900e-02 1.0072800e-01
1.8959900e+00 5.3199900e-02 1.0072800e-01
1.8870278e+00 5.8912311e-02 1.0133146e-01
1.8773611e+00 6.4314978e-02 1.0142846e-01
1.8669900e+00 6.9407900e-02 1.0101900e-01
1.8559144e+00 7.4191078e-02 1.0010309e-01
1.8441344e+00 7.8664511e-02 9.8680722e-02
1.8316500e+00 8.2828200e-02 9.6751900e-02
1.8316500e+00 8.2828200e-02 9.6751900e-02
1.8198633e+00 8.5221622e-02 9.2930889e-02
1.8090100e+00 8.6298522e-02 8.8827756e-02
1.7990900e+00 8.6058900e-02 8.4442500e-02
1.7901033e+00 8.4502756e-02 7.9775122e-02
1.7820500e+00 8.1630089e-02 7.4825622e-02
1.7749300e+00 7.7440900e-02 6.9594000e-02
1.7749300e+00 7.7440900e-02 6.9594000e-02
1.7690133e+00 7.2096500e-02 6.6504533e-02
1.7625367e+00 6.6533033e-02 6.3134133e-02
1.7555000e+00 6.0750500e-02 5.9482800e-02
1.7479033e+00 5.4748900e-02 5.5550533e-02
1.7397467e+00 4.8528233e-02 5.1337333e-02
1.7310300e+00 4.2088500e-02 4.6843200e-02
1.7310300e+00 4.2088500e-02 4.6843200e-02
1.7201056e+00 3.5670700e-02 4.0857611e-02
1.7079989e+00 3.0702967e-02 3.5353378e-02
1.6947100e+00 2.7185300e-02 3.0330500e-02
1.6802389e+00 2.5117700e-02 2.5788978e-02
1.6645856e+00 2.4500167e-02 2.1728811e-02
1.6477500e+00 2.5332700e-02 1.8150000e-02
1.6477500e+00 2.5332700e-02 1.8150000e-02
1.6303833e+00 2.9513044e-02 1.6500578e-02
1.6146367e+00 3.3694878e-02 1.5256844e-02
1.6005100e+00 3.7878200e-02 1.4418800e-02
1.5880033e+00 4.2063011e-02 1.3986444e-02
1.5771167e+00 4.6249311e-02 1.3959778e-02
1.5678500e+00 5.0437100e-02 1.4338800e-02
1.5957500e+00 6.7664000e-02 4.1873500e-03
1.5936278e+00 6.2759989e-02 4.3659889e-03
1.5904944e+00 5.8669122e-02 5.1499356e-03
1.5863500e+00 5.5391400e-02 6.5391900e-03
1.5811944e+00 5.2926822e-02 8.5337522e-03
1.5750278e+00 5.1275389e-02 1.1133622e-02
1.5678500e+00 5.0437100e-02 1.4338800e-02
1.9680000e+00 1.6524500e-01 4.9719500e-02
1.9620433e+00 1.6055656e-01 4.5499644e-02
1.9561233e+00 1.5580322e-01 4.1084511e-02
1.9502400e+00 1.5098500e-01 3.6474100e-02
1.9443933e+00 1.4610189e-01 3.1668411e-02
1.9385833e+00 1.4115389e-01 2.6667444e-02
1.9328100e+00 1.3614100e-01 2.1471200e-02
1.9328100e+00 1.3614100e-01 2.1471200e-02
1.9274000e+00 1.3011222e-01 1.6446667e-02
1.9220967e+00 1.2449956e-01 1.2748467e-02
1.9169000e+00 1.1930300e-01 1.0376600e-02
1.9118100e+00 1.1452256e-01 9.3310667e-03
1.9068267e+00 1.1015822e-01 9.6118667e-03
1.9019500e+00 1.0621000e-01 1.1219000e-02
1.9019500e+00 1.0621000e-01 1.1219000e-02
1.8940778e+00 1.0413167e-01 1.7718000e-02
1.8855778e+00 1.0261067e-01 2.4350100e-02
1.8764500e+00 1.0164700e-01 3.1115300e-02
1.8666944e+00 1.0124067e-01 3.8013600e-02
1.8563111e+00 1.0139167e-01 4.5045000e-02
1.8453000e+00 1.0210000e-01 5.2209500e-02
1.8453000e+00 1.0210000e-01 5.2209500e-02
1.8345800e+00 1.0435067e-01 6.0380389e-02
1.8234200e+00 1.0605767e-01 6.8749022e-02
1.8118200e+00 1.0722100e-01 7.7315400e-02
1.7997800e+00 1.0784067e-01 8.6079522e-02
1.7873000e+00 1.0791667e-01 9.5041389e-02
1.7743800e+00 1.0744900e-01 1.0420100e-01
1.7743800e+00 1.0744900e-01 1.0420100e-01
1.7614767e+00 1.0072993e-01 1.0387640e-01
1.7475567e+00 9.4645033e-02 1.0031947e-01
1.7326200e+00 8.9194300e-02 9.3530200e-02
1.7166667e+00 8.4377733e-02 8.3508600e-02
1.6996967e+00 8.0195333e-02 7.0254667e-02
1.6817100e+00 7.6647100e-02 5.3768400e-02
1.6817100e+00 7.6647100e-02 5.3768400e-02
1.6649556e+00 7.5467611e-02 4.1038850e-02
1.6491722e+00 7.4161044e-02 3.0095717e-02
1.6343600e+00 7.2727400e-02 2.0939000e-02
1.6205189e+00 7.1166678e-02 1.3568700e-02
1.6076489e+00 6.9478878e-02 7.9848167e-03
1.5957500e+00 6.7664000e-02 4.1873500e-03
1.1607800e+00 1.0834300e-01 -4.7067300e-03
1.1736311e+00 9.8757644e-02 -3.0356056e-03
1.1887478e+00 8.9972278e-02 -2.4281356e-03
1.2061300e+00 8.1986900e-02 -2.8843200e-03
1.2257778e+00 7.4801511e-02 -4.4041589e-03
1.2476911e+00 6.8416111e-02 -6.9876522e-03
1.2718700e+00 6.2830700e-02 -1.0634800e-02
1.2718700e+00 6.2830700e-02 -1.0634800e-02
1.2940456e+00 6.4356333e-02 -1.1022276e-02
1.3151322e+00 6.7479400e-02 -1.0701739e-02
1.3351300e+00 7.2199900e-02 -9.6731900e-03
1.3540389e+00 7.8517833e-02 -7.9366289e-03
1.3718589e+00 8.6433200e-02 -5.4920556e-03
1.3885900e+00 9.5946000e-02 -2.3394700e-03
1.3885900e+00 9.5946000e-02 -2.3394700e-03
1.4043600e+00 1.0518389e-01 -2.7619444e-04
1.4208633e+00 1.1258222e-01 1.7685522e-03
1.4381000e+00 1.1814100e-01 3.7947700e-03
1.4560700e+00 1.2186022e-01 5.8024589e-03
1.4747733e+00 1.2373989e-01 7.7916189e-03
1.4942100e+00 1.2378000e-01 9.7622500e-03
1.4942100e+00 1.2378000e-01 9.7622500e-03
1.5152222e+00 1.1663061e-01 1.0224233e-02
1.5345989e+00 1.0859991e-01 1.0129763e-02
1.5523400e+00 9.9687900e-02 9.4788400e-03
1.5684456e+00 8.9894578e-02 8.2714633e-03
1.5829156e+00 7.9219944e-02 6.5076333e-03
1.5957500e+00 6.7664000e-02 4.1873500e-03
9.4729100e-01 3.4512400e-01 -6.0816100e-03