# vtk DataFile Version 2.0
test
ASCII
DATASET POLYDATA
POINTS 4361 float
6.0671222e+00 7.3509255e+00 1.1858189e+01
6.1843011e+00 7.4014368e+00 1.1736147e+01
6.3027788e+00 7.4503093e+00 1.1614751e+01
6.4225550e+00 7.4975431e+00 1.1493999e+01
6.5436300e+00 7.5431380e+00 1.1373892e+01
6.6660036e+00 7.5870941e+00 1.1254430e+01
6.7896758e+00 7.6294114e+00 1.1135613e+01
6.7896758e+00 7.6294114e+00 1.1135613e+01
6.9161268e+00 7.6812786e+00 1.1020566e+01
7.0482270e+00 7.7312213e+00 1.0912714e+01
7.1859765e+00 7.7792395e+00 1.0812056e+01
7.3293752e+00 7.8253332e+00 1.0718593e+01
7.4784233e+00 7.8695024e+00 1.0632325e+01
7.6331206e+00 7.9117471e+00 1.0553251e+01
7.6331206e+00 7.9117471e+00 1.0553251e+01
7.8010225e+00 7.9462905e+00 1.0498291e+01
7.9707563e+00 7.9790851e+00 1.0459657e+01
8.1423220e+00 8.0101310e+00 1.0437349e+01
8.3157197e+00 8.0394282e+00 1.0431366e+01
8.4909494e+00 8.0669767e+00 1.0441710e+01
8.6680111e+00 8.0927764e+00 1.0468379e+01
8.6680111e+00 8.0927764e+00 1.0468379e+01
8.8428979e+00 8.1145982e+00 1.0494011e+01
9.0173956e+00 8.1346788e+00 1.0522997e+01
9.1915042e+00 8.1530182e+00 1.0555338e+01
9.3652237e+00 8.1696164e+00 1.0591032e+01
9.5385542e+00 8.1844733e+00 1.0630081e+01
9.7114956e+00 8.1975891e+00 1.0672484e+01
9.7114956e+00 8.1975891e+00 1.0672484e+01
9.8840976e+00 8.2088229e+00 1.0717126e+01
1.0057655e+01 8.2182969e+00 1.0757237e+01
1.0232168e+01 8.2260111e+00 1.0792817e+01
1.0407637e+01 8.2319655e+00 1.0823865e+01
1.0584061e+01 8.2361601e+00 1.0850383e+01
1.0761440e+01 8.2385949e+00 1.0872368e+01
1.0761440e+01 8.2385949e+00 1.0872368e+01
1.0941447e+01 8.2382082e+00 1.0885874e+01
1.1119497e+01 8.2360908e+00 1.0884728e+01
1.1295589e+01 8.2322427e+00 1.0868932e+01
1.1469725e+01 8.2266639e+00 1.0838486e+01
1.1641903e+01 8.2193544e+00 1.0793389e+01
1.1812125e+01 8.2103142e+00 1.0733641e+01
1.1812125e+01 8.2103142e+00 1.0733641e+01
1.1974697e+01 8.1993667e+00 1.0655590e+01
1.2128664e+01 8.1905529e+00 1.0566050e+01
1.2274027e+01 8.1838727e+00 1.0465019e+01
1.2410785e+01 8.1793263e+00 1.0352498e+01
1.2538939e+01 8.1769136e+00 1.0228488e+01
1.2658488e+01 8.1766346e+00 1.0092988e+01
1.2658488e+01 8.1766346e+00 1.0092988e+01
1.2763570e+01 8.2017111e+00 9.9500419e+00
1.2867906e+01 8.2231138e+00 9.8059575e+00
1.2971494e+01 8.2408428e+00 9.6607344e+00
1.3074335e+01 8.2548980e+00 9.5143727e+00
1.3176429e+01 8.2652796e+00 9.3668722e+00
1.3277776e+01 8.2719874e+00 9.2182331e+00
1.3277776e+01 8.2719874e+00 9.2182331e+00
1.3168339e+01 8.1956679e+00 9.0871995e+00
1.3058686e+01 8.1152554e+00 8.9595159e+00
1.2948818e+01 8.0307498e+00 8.8351820e+00
1.2838735e+01 7.9421511e+00 8.7141981e+00
1.2728437e+01 7.8494594e+00 8.5965640e+00
1.2617923e+01 7.7526746e+00 8.4822797e+00
1.2617923e+01 7.7526746e+00 8.4822797e+00
1.2506209e+01 7.6766769e+00 8.3543908e+00
1.2397920e+01 7.5992576e+00 8.2248226e+00
1.2293059e+01 7.5204167e+00 8.0935751e+00
1.2191623e+01 7.4401541e+00 7.9606483e+00
1.2093613e+01 7.3584699e+00 7.8260422e+00
1.1999030e+01 7.2753640e+00 7.6897568e+00
1.1999030e+01 7.2753640e+00 7.6897568e+00
1.1910002e+01 7.1956735e+00 7.5470215e+00
1.1828298e+01 7.1136613e+00 7.4022820e+00
1.1753919e+01 7.0293275e+00 7.2555383e+00
1.1686864e+01 6.9426720e+00 7.1067903e+00
1.1627133e+01 6.8536949e+00 6.9560381e+00
1.1574727e+01 6.7623961e+00 6.8032816e+00
1.1574727e+01 6.7623961e+00 6.8032816e+00
1.1536453e+01 6.6685594e+00 6.6489932e+00
1.1506823e+01 6.5731832e+00 6.4945871e+00
1.1485839e+01 6.4762675e+00 6.3400631e+00
1.1473499e+01 6.3778122e+00 6.1854214e+00
1.1469803e+01 6.2778174e+00 6.0306619e+00
1.1474753e+01 6.1762830e+00 5.8757847e+00
1.1474753e+01 6.1762830e+00 5.8757847e+00
1.1488612e+01 6.0733422e+00 5.7230220e+00
1.1509181e+01 5.9686250e+00 5.5731042e+00
1.1536461e+01 5.8621315e+00 5.4260312e+00
1.1570452e+01 5.7538614e+00 5.2818031e+00
1.1611154e+01 5.6438150e+00 5.1404199e+00
1.1658566e+01 5.5319922e+00 5.0018816e+00
1.1658566e+01 5.5319922e+00 5.0018816e+00
1.1708249e+01 5.4192188e+00 4.8656294e+00
1.1759526e+01 5.3057429e+00 4.7306145e+00
1.1812397e+01 5.1915646e+00 4.5968366e+00
1.1866862e+01 5.0766837e+00 4.4642960e+00
1.1922920e+01 4.9611003e+00 4.3329924e+00
1.1980573e+01 4.8448145e+00 4.2029260e+00
1.1980573e+01 4.8448145e+00 4.2029260e+00
1.2036848e+01 4.7270649e+00 4.0739104e+00
1.2089822e+01 4.6064925e+00 3.9459958e+00
1.2139494e+01 4.4830974e+00 3.8191824e+00
1.2185865e+01 4.3568795e+00 3.6934702e+00
1.2228933e+01 4.2278389e+00 3.5688591e+00
1.2268700e+01 4.0959755e+00 3.4453491e+00
1.2268700e+01 4.0959755e+00 3.4453491e+00
1.2303798e+01 3.9612623e+00 3.3231486e+00
1.2331949e+01 3.8253656e+00 3.2012647e+00
1.2353155e+01 3.6882854e+00 3.0796973e+00
1.2367414e+01 3.5500217e+00 2.9584464e+00
1.2374727e+01 3.4105744e+00 2.8375121e+00
1.2375093e+01 3.2699435e+00 2.7168944e+00
1.2375093e+01 3.2699435e+00 2.7168944e+00
1.2367339e+01 3.1268338e+00 2.5983962e+00
1.2351160e+01 2.9835195e+00 2.4820544e+00
1.2326557e+01 2.8400008e+00 2.3678690e+00
1.2293528e+01 2.6962775e+00 2.2558401e+00
1.2252074e+01 2.5523496e+00 2.1459676e+00
1.2202195e+01 2.4082173e+00 2.0382515e+00
1.2202195e+01 2.4082173e+00 2.0382515e+00
1.2144321e+01 2.2680302e+00 1.9297643e+00
1.2080660e+01 2.1289753e+00 1.8235500e+00
1.2011214e+01 1.9910527e+00 1.7196085e+00
1.1935980e+01 1.8542622e+00 1.6179399e+00
1.1854961e+01 1.7186041e+00 1.5185441e+00
1.1768155e+01 1.5840781e+00 1.4214211e+00
1.1768155e+01 1.5840781e+00 1.4214211e+00
1.1672301e+01 1.4519890e+00 1.3290005e+00
1.1573688e+01 1.3208295e+00 1.2385714e+00
1.1472317e+01 1.1905997e+00 1.1501338e+00
1.1368188e+01 1.0612995e+00 1.0636877e+00
1.1261300e+01 9.3292898e-01 9.7923307e-01
1.1151654e+01 8.0548807e-01 8.9676994e-01
1.1151654e+01 8.0548807e-01 8.9676994e-01
1.1043277e+01 6.7501114e-01 8.1476999e-01
1.0934559e+01 5.4480175e-01 7.3336158e-01
1.0825501e+01 4.1485990e-01 6.5254470e-01
1.0716104e+01 2.8518560e-01 5.7231934e-01
1.0606366e+01 1.5577883e-01 4.9268552e-01
1.0496289e+01 2.6639600e-02 4.1364323e-01
3.7260300e+00 6.3478221e+00 1.1753011e+01
3.6820931e+00 6.2986734e+00 1.1573379e+01
3.6371897e+00 6.2440726e+00 1.1395904e+01
3.5913198e+00 6.1840195e+00 1.1220586e+01
3.5444834e+00 6.1185143e+00 1.1047425e+01
3.4966806e+00 6.0475569e+00 1.0876421e+01
3.4479112e+00 5.9711473e+00 1.0707574e+01
3.4479112e+00 5.9711473e+00 1.0707574e+01
3.4115229e+00 5.9119919e+00 1.0529092e+01
3.3810741e+00 5.8506588e+00 1.0350763e+01
3.3565646e+00 5.7871481e+00 1.0172585e+01
3.3379945e+00 5.7214597e+00 9.9945581e+00
3.3253638e+00 5.6535936e+00 9.8166833e+00
3.3186726e+00 5.5835499e+00 9.6389602e+00
3.3186726e+00 5.5835499e+00 9.6389602e+00
3.3216367e+00 5.5083118e+00 9.4625328e+00
3.3325584e+00 5.4295359e+00 9.2892454e+00
3.3514376e+00 5.3472220e+00 9.1190980e+00
3.3782743e+00 5.2613701e+00 8.9520905e+00
3.4130685e+00 5.1719803e+00 8.7882230e+00
3.4558202e+00 5.0790525e+00 8.6274955e+00
3.4558202e+00 5.0790525e+00 8.6274955e+00
3.5173029e+00 4.9794885e+00 8.4751139e+00
3.5909033e+00 4.8776704e+00 8.3333521e+00
3.6766216e+00 4.7735983e+00 8.2022102e+00
3.7744577e+00 4.6672721e+00 8.0816881e+00
3.8844116e+00 4.5586920e+00 7.9717858e+00
4.0064833e+00 4.4478577e+00 7.8725034e+00
4.0064833e+00 4.4478577e+00 7.8725034e+00
4.1261221e+00 4.3381663e+00 7.7744725e+00
4.2460148e+00 4.2278092e+00 7.6776725e+00
4.3661612e+00 4.1167864e+00 7.5821035e+00
4.4865615e+00 4.0050978e+00 7.4877654e+00
4.6072156e+00 3.8927435e+00 7.3946582e+00
4.7281235e+00 3.7797236e+00 7.3027820e+00
4.7281235e+00 3.7797236e+00 7.3027820e+00
4.8507303e+00 3.6639343e+00 7.2153647e+00
4.9688669e+00 3.5455106e+00 7.1259616e+00
5.0825332e+00 3.4244527e+00 7.0345726e+00
5.1917294e+00 3.3007603e+00 6.9411978e+00
5.2964553e+00 3.1744337e+00 6.8458371e+00
5.3967109e+00 3.0454726e+00 6.7484906e+00
5.3967109e+00 3.0454726e+00 6.7484906e+00
5.4887494e+00 2.9143222e+00 6.6444597e+00
5.5698316e+00 2.7820612e+00 6.5351630e+00
5.6399578e+00 2.6486896e+00 6.4206006e+00
5.6991277e+00 2.5142075e+00 6.3007724e+00
5.7473415e+00 2.3786148e+00 6.1756784e+00
5.7845992e+00 2.2419115e+00 6.0453187e+00
5.7845992e+00 2.2419115e+00 6.0453187e+00
5.8038438e+00 2.1060400e+00 5.9100130e+00
5.8121104e+00 1.9715971e+00 5.7738906e+00
5.8093988e+00 1.8385828e+00 5.6369518e+00
5.7957092e+00 1.7069972e+00 5.4991963e+00
5.7710414e+00 1.5768401e+00 5.3606242e+00
5.7353956e+00 1.4481117e+00 5.2212356e+00
5.7353956e+00 1.4481117e+00 5.2212356e+00
5.6937002e+00 1.3234771e+00 5.0800095e+00
5.6476000e+00 1.2006874e+00 4.9388026e+00
5.5970950e+00 1.0797425e+00 4.7976151e+00
5.5421853e+00 9.6064246e-01 4.6564469e+00
5.4828707e+00 8.4338725e-01 4.5152979e+00
5.4191514e+00 7.2797686e-01 4.3741682e+00
5.4191514e+00 7.2797686e-01 4.3741682e+00
5.3539195e+00 6.0828058e-01 4.2374893e+00
5.2877269e+00 4.8843017e-01 4.1013065e+00
5.2205735e+00 3.6842562e-01 3.9656198e+00
5.1524594e+00 2.4826694e-01 3.8304292e+00
5.0833845e+00 1.2795414e-01 3.6957347e+00
5.0133489e+00 7.4872000e-03 3.5615363e+00
2.5046600e+00 6.1590544e+00 1.3840784e+01
2.5833797e+00 6.2689308e+00 1.3698276e+01
2.6737867e+00 6.3766537e+00 1.3565211e+01
2.7758811e+00 6.4822232e+00 1.3441587e+01
2.8896628e+00 6.5856392e+00 1.3327406e+01
3.0151318e+00 6.6869018e+00 1.3222667e+01
3.1522882e+00 6.7860109e+00 1.3127370e+01
3.1522882e+00 6.7860109e+00 1.3127370e+01
3.3197552e+00 6.8672504e+00 1.3071198e+01
3.4926925e+00 6.9375059e+00 1.3027358e+01
3.6711000e+00 6.9967774e+00 1.2995852e+01
3.8549777e+00 7.0450648e+00 1.2976679e+01
4.0443258e+00 7.0823681e+00 1.2969840e+01
4.2391440e+00 7.1086874e+00 1.2975333e+01
4.2391440e+00 7.1086874e+00 1.2975333e+01
4.4346513e+00 7.1270763e+00 1.2981357e+01
4.6260949e+00 7.1460248e+00 1.2969923e+01
4.8134748e+00 7.1655329e+00 1.2941030e+01
4.9967910e+00 7.1856006e+00 1.2894677e+01
5.1760436e+00 7.2062279e+00 1.2830865e+01
5.3512325e+00 7.2274148e+00 1.2749595e+01
5.3512325e+00 7.2274148e+00 1.2749595e+01
5.4990804e+00 7.2555931e+00 1.2626074e+01
5.6355152e+00 7.2807342e+00 1.2492535e+01
5.7605367e+00 7.3028379e+00 1.2348976e+01
5.8741451e+00 7.3219044e+00 1.2195399e+01
[...]
POINT_DATA 4361
VECTORS U float
2.7702200e+00 8.8807700e-01 -9.0687200e-03
2.7915633e+00 8.6709222e-01 2.5840222e-03
2.8115700e+00 8.4414589e-01 1.2562229e-02
2.8302400e+00 8.1923800e-01 2.0865900e-02
2.8475733e+00 7.9236856e-01 2.7495036e-02
2.8635700e+00 7.6353756e-01 3.2449636e-02
2.8782300e+00 7.3274500e-01 3.5729700e-02
2.8782300e+00 7.3274500e-01 3.5729700e-02
2.8894911e+00 7.1030444e-01 3.8557963e-02
2.8992111e+00 6.8640711e-01 3.8455463e-02
2.9073900e+00 6.6105300e-01 3.5422200e-02
2.9140278e+00 6.3424211e-01 2.9458173e-02
2.9191244e+00 6.0597444e-01 2.0563383e-02
2.9226800e+00 5.7625000e-01 8.7378300e-03
2.9226800e+00 5.7625000e-01 8.7378300e-03
2.9309411e+00 5.4152478e-01 2.4796250e-03
2.9382878e+00 5.0891378e-01 -2.2558667e-04
2.9447200e+00 4.7841700e-01 6.2219500e-04
2.9502378e+00 4.5003444e-01 5.0229700e-03
2.9548411e+00 4.2376611e-01 1.2976738e-02
2.9585300e+00 3.9961200e-01 2.4483500e-02
2.9585300e+00 3.9961200e-01 2.4483500e-02
2.9614678e+00 3.7608656e-01 2.6687578e-02
2.9639611e+00 3.5421189e-01 2.8570144e-02
2.9660100e+00 3.3398800e-01 3.0131200e-02
2.9676144e+00 3.1541489e-01 3.1370744e-02
2.9687744e+00 2.9849256e-01 3.2288778e-02
2.9694900e+00 2.8322100e-01 3.2885300e-02
2.9694900e+00 2.8322100e-01 3.2885300e-02
2.9694156e+00 2.6869044e-01 3.5882178e-02
2.9692956e+00 2.5515644e-01 3.8399778e-02
2.9691300e+00 2.4261900e-01 4.0438100e-02
2.9689189e+00 2.3107811e-01 4.1997144e-02
2.9686622e+00 2.2053378e-01 4.3076911e-02
2.9683600e+00 2.1098600e-01 4.3677400e-02
2.9683600e+00 2.1098600e-01 4.3677400e-02
2.9679789e+00 2.0147356e-01 4.4519811e-02
2.9672056e+00 1.9324422e-01 4.3905611e-02
2.9660400e+00 1.8629800e-01 4.1834800e-02
2.9644822e+00 1.8063489e-01 3.8307378e-02
2.9625322e+00 1.7625489e-01 3.3323344e-02
2.9601900e+00 1.7315800e-01 2.6882700e-02
2.9601900e+00 1.7315800e-01 2.6882700e-02
2.9576911e+00 1.7130900e-01 2.1043594e-02
2.9534178e+00 1.7322267e-01 1.3968378e-02
2.9473700e+00 1.7889900e-01 5.6570500e-03
2.9395478e+00 1.8833800e-01 -3.8903889e-03
2.9299511e+00 2.0153967e-01 -1.4673939e-02
2.9185800e+00 2.1850400e-01 -2.6693600e-02
2.9185800e+00 2.1850400e-01 -2.6693600e-02
2.8990511e+00 2.6125711e-01 -4.1983167e-02
2.8814144e+00 3.0063611e-01 -5.6093533e-02
2.8656700e+00 3.3664100e-01 -6.9024700e-02
2.8518178e+00 3.6927178e-01 -8.0776667e-02
2.8398578e+00 3.9852844e-01 -9.1349433e-02
2.8297900e+00 4.2441100e-01 -1.0074300e-01
2.8297900e+00 4.2441100e-01 -1.0074300e-01
2.8152144e+00 4.1173944e-01 -8.7536667e-02
2.7990811e+00 3.9548944e-01 -7.0371300e-02
2.7813900e+00 3.7566100e-01 -4.9246900e-02
2.7621411e+00 3.5225411e-01 -2.4163467e-02
2.7413344e+00 3.2526878e-01 4.8790000e-03
2.7189700e+00 2.9470500e-01 3.7880500e-02
2.7189700e+00 2.9470500e-01 3.7880500e-02
2.6928889e+00 2.8597933e-01 5.8613556e-02
2.6654656e+00 2.7739067e-01 7.9226156e-02
2.6367000e+00 2.6893900e-01 9.9718300e-02
2.6065922e+00 2.6062433e-01 1.2008999e-01
2.5751422e+00 2.5244667e-01 1.4034122e-01
2.5423500e+00 2.4440600e-01 1.6047200e-01
2.5423500e+00 2.4440600e-01 1.6047200e-01
2.5080389e+00 2.4206622e-01 1.7643422e-01
2.4717522e+00 2.3944489e-01 1.9114089e-01
2.4334900e+00 2.3654200e-01 2.0459200e-01
2.3932522e+00 2.3335756e-01 2.1678756e-01
2.3510389e+00 2.2989156e-01 2.2772756e-01
2.3068500e+00 2.2614400e-01 2.3741200e-01
2.3068500e+00 2.2614400e-01 2.3741200e-01
2.2644178e+00 2.2176900e-01 2.4482500e-01
2.2207511e+00 2.1683200e-01 2.4973333e-01
2.1758500e+00 2.1133300e-01 2.5213700e-01
2.1297144e+00 2.0527200e-01 2.5203600e-01
2.0823444e+00 1.9864900e-01 2.4943033e-01
2.0337400e+00 1.9146400e-01 2.4432000e-01
2.0337400e+00 1.9146400e-01 2.4432000e-01
1.9859011e+00 1.8297522e-01 2.3724689e-01
1.9394011e+00 1.7310322e-01 2.2984122e-01
1.8942400e+00 1.6184800e-01 2.2210300e-01
1.8504178e+00 1.4920956e-01 2.1403222e-01
1.8079344e+00 1.3518789e-01 2.0562889e-01
1.7667900e+00 1.1978300e-01 1.9689300e-01
1.7667900e+00 1.1978300e-01 1.9689300e-01
1.7250500e+00 1.0385007e-01 1.8763300e-01
1.6833900e+00 8.8222967e-02 1.7761433e-01
1.6418100e+00 7.2901700e-02 1.6683700e-01
1.6003100e+00 5.7886267e-02 1.5530100e-01
1.5588900e+00 4.3176667e-02 1.4300633e-01
1.5175500e+00 2.8772900e-02 1.2995300e-01
1.5175500e+00 2.8772900e-02 1.2995300e-01
1.4748367e+00 1.4351922e-02 1.1667811e-01
1.4303433e+00 -7.8791111e-04 1.0376291e-01
1.3840700e+00 -1.6646600e-02 9.1207400e-02
1.3360167e+00 -3.3224144e-02 7.9011578e-02
1.2861833e+00 -5.0520544e-02 6.7175444e-02
1.2345700e+00 -6.8535800e-02 5.5699000e-02
1.2345700e+00 -6.8535800e-02 5.5699000e-02
1.1811620e+00 -8.6567667e-02 4.5478953e-02
1.1261887e+00 -1.0259673e-01 3.5604620e-02
1.0696500e+00 -1.1662300e-01 2.6076000e-02
1.0115460e+00 -1.2864647e-01 1.6893094e-02
9.5187667e-01 -1.3866713e-01 8.0559006e-03
8.9064200e-01 -1.4668500e-01 -4.3557900e-04
8.9064200e-01 -1.4668500e-01 -4.3557900e-04
8.2944078e-01 -1.5314789e-01 -6.3683328e-03
7.6970244e-01 -1.5735122e-01 -1.0784740e-02
7.1142700e-01 -1.5929500e-01 -1.3684800e-02
6.5461444e-01 -1.5897922e-01 -1.5068513e-02
5.9926478e-01 -1.5640389e-01 -1.4935880e-02
5.4537800e-01 -1.5156900e-01 -1.3286900e-02
5.4537800e-01 -1.5156900e-01 -1.3286900e-02
4.9587811e-01 -1.4184671e-01 -1.4178400e-02
4.4989578e-01 -1.3150071e-01 -1.4892800e-02
4.0743100e-01 -1.2053100e-01 -1.5430100e-02
3.6848378e-01 -1.0893758e-01 -1.5790300e-02
3.3305411e-01 -9.6720444e-02 -1.5973400e-02
3.0114200e-01 -8.3879600e-02 -1.5979400e-02
3.0114200e-01 -8.3879600e-02 -1.5979400e-02
2.6725611e-01 -7.0592833e-02 -1.3823391e-02
2.3538078e-01 -5.7737067e-02 -1.1408888e-02
2.0551600e-01 -4.5312300e-02 -8.7358900e-03
1.7766178e-01 -3.3318533e-02 -5.8043978e-03
1.5181811e-01 -2.1755767e-02 -2.6144111e-03
1.2798500e-01 -1.0624000e-02 8.3407000e-04
1.2798500e-01 -1.0624000e-02 8.3407000e-04
1.0793603e-01 -3.7265111e-03 3.5390556e-03
8.8889500e-02 2.8962222e-03 6.2507356e-03
7.0845400e-02 9.2442000e-03 8.9691100e-03
5.3803733e-02 1.5317422e-02 1.1694179e-02
3.7764500e-02 2.1115889e-02 1.4425942e-02
2.2727700e-02 2.6639600e-02 1.7164400e-02
2.5079100e+00 1.1363100e+00 1.0845600e-01
2.4865600e+00 1.1233926e+00 1.1634467e-01
2.4619433e+00 1.1056092e+00 1.2647100e-01
2.4340600e+00 1.0829600e+00 1.3883500e-01
2.4029100e+00 1.0554449e+00 1.5343667e-01
2.3684933e+00 1.0230639e+00 1.7027600e-01
2.3308100e+00 9.8581700e-01 1.8935300e-01
2.3308100e+00 9.8581700e-01 1.8935300e-01
2.3010156e+00 9.6702878e-01 1.9939911e-01
2.2691989e+00 9.4791144e-01 2.0854178e-01
2.2353600e+00 9.2846500e-01 2.1678100e-01
2.1994989e+00 9.0868944e-01 2.2411678e-01
2.1616156e+00 8.8858478e-01 2.3054911e-01
2.1217100e+00 8.6815100e-01 2.3607800e-01
2.1217100e+00 8.6815100e-01 2.3607800e-01
2.0787144e+00 8.4532311e-01 2.4045478e-01
2.0320411e+00 8.2115011e-01 2.4192411e-01
1.9816900e+00 7.9563200e-01 2.4048600e-01
1.9276611e+00 7.6876878e-01 2.3614044e-01
1.8699544e+00 7.4056044e-01 2.2888744e-01
1.8085700e+00 7.1100700e-01 2.1872700e-01
1.8085700e+00 7.1100700e-01 2.1872700e-01
1.7550233e+00 6.7637456e-01 2.0693544e-01
1.7074833e+00 6.4078656e-01 1.9861811e-01
1.6659500e+00 6.0424300e-01 1.9377500e-01
1.6304233e+00 5.6674389e-01 1.9240611e-01
1.6009033e+00 5.2828922e-01 1.9451144e-01
1.5773900e+00 4.8887900e-01 2.0009100e-01
1.5773900e+00 4.8887900e-01 2.0009100e-01
1.5491167e+00 4.5160267e-01 2.0142878e-01
1.5200067e+00 4.1530833e-01 2.0084478e-01
1.4900600e+00 3.7999600e-01 1.9833900e-01
1.4592767e+00 3.4566567e-01 1.9391144e-01
1.4276567e+00 3.1231733e-01 1.8756211e-01
1.3952000e+00 2.7995100e-01 1.7929100e-01
1.3952000e+00 2.7995100e-01 1.7929100e-01
1.3649478e+00 2.4686218e-01 1.7439800e-01
1.3324378e+00 2.1403384e-01 1.6827333e-01
1.2976700e+00 1.8146600e-01 1.6091700e-01
1.2606444e+00 1.4915864e-01 1.5232900e-01
1.2213611e+00 1.1711178e-01 1.4250933e-01
1.1798200e+00 8.5325400e-02 1.3145800e-01
1.1798200e+00 8.5325400e-02 1.3145800e-01
1.1336117e+00 5.5309756e-02 1.1660111e-01
1.0838717e+00 2.8202422e-02 1.0081641e-01
1.0306000e+00 4.0034000e-03 8.4103900e-02
9.7379667e-01 -1.7287311e-02 6.6463578e-02
9.1346167e-01 -3.5669711e-02 4.7895444e-02
8.4959500e-01 -5.1143800e-02 2.8399500e-02
8.4959500e-01 -5.1143800e-02 2.8399500e-02
7.8013289e-01 -6.1171144e-02 1.0675489e-02
7.1225422e-01 -6.8212644e-02 -3.7978111e-03
6.4595900e-01 -7.2268300e-02 -1.5020400e-02
5.8124722e-01 -7.3338111e-02 -2.2992278e-02
5.1811889e-01 -7.1422078e-02 -2.7713444e-02
4.5657400e-01 -6.6520200e-02 -2.9183900e-02
4.5657400e-01 -6.6520200e-02 -2.9183900e-02
4.0207322e-01 -5.8914378e-02 -3.0788500e-02
3.5129122e-01 -5.0656644e-02 -3.1664933e-02
3.0422800e-01 -4.1747000e-02 -3.1813200e-02
2.6088356e-01 -3.2185444e-02 -3.1233300e-02
2.2125789e-01 -2.1971978e-02 -2.9925233e-02
1.8535100e-01 -1.1106600e-02 -2.7889000e-02
1.8535100e-01 -1.1106600e-02 -2.7889000e-02
1.5234126e-01 -6.0655222e-03 -2.1829133e-02
1.2066196e-01 -1.8012889e-03 -1.5334560e-02
9.0313100e-02 1.6861000e-03 -8.4052800e-03
6.1294678e-02 4.3966444e-03 -1.0412933e-03
3.3606694e-02 6.3303444e-03 6.7574000e-03
7.2491500e-03 7.4872000e-03 1.4990800e-02
2.5046600e+00 1.1893500e+00 -7.8998800e-02
2.5326822e+00 1.1961522e+00 -6.2119644e-02
2.5590289e+00 1.1993656e+00 -4.5941578e-02
2.5837000e+00 1.1989900e+00 -3.0464600e-02
2.6066956e+00 1.1950256e+00 -1.5688711e-02
2.6280156e+00 1.1874722e+00 -1.6139111e-03
2.6476600e+00 1.1763300e+00 1.1759800e-02
2.6476600e+00 1.1763300e+00 1.1759800e-02
2.6633333e+00 1.1531056e+00 1.9648331e-02
2.6773900e+00 1.1276856e+00 2.3790698e-02
2.6898300e+00 1.1000700e+00 2.4186900e-02
2.7006533e+00 1.0702589e+00 2.0836938e-02
2.7098600e+00 1.0382522e+00 1.3740811e-02
2.7174500e+00 1.0040500e+00 2.8985200e-03
2.7174500e+00 1.0040500e+00 2.8985200e-03
2.7241756e+00 9.6667678e-01 -6.4452333e-03
2.7294689e+00 9.3472544e-01 -1.4394973e-02
2.7333300e+00 9.0819600e-01 -2.0950700e-02
2.7357589e+00 8.8708844e-01 -2.6112413e-02
2.7367556e+00 8.7140278e-01 -2.9880113e-02
2.7363200e+00 8.6113900e-01 -3.2253800e-02
2.7363200e+00 8.6113900e-01 -3.2253800e-02
2.7383256e+00 8.6586533e-01 -2.9466420e-02
2.7417889e+00 8.7049700e-01 -2.6248320e-02
2.7467100e+00 8.7503400e-01 -2.2599500e-02
2.7530889e+00 8.7947633e-01 -1.8519960e-02
2.7609256e+00 8.8382400e-01 -1.4009700e-02
2.7702200e+00 8.8807700e-01 -9.0687200e-03
2.4551800e+00 1.1685200e+00 1.5463700e-02
2.4676767e+00 1.1694433e+00 3.9479056e-02
2.4786900e+00 1.1678500e+00 6.0087756e-02
2.4882200e+00 1.1637400e+00 7.7289800e-02
2.4962667e+00 1.1571133e+00 9.1085189e-02
2.5028300e+00 1.1479700e+00 1.0147392e-01
2.5079100e+00 1.1363100e+00 1.0845600e-01
2.8297900e+00 4.2441100e-01 -1.0074300e-01
2.7956189e+00 3.7809833e-01 -9.7062044e-02
2.7598589e+00 3.3315667e-01 -9.1560978e-02
2.7225100e+00 2.8958600e-01 -8.4239800e-02
2.6835722e+00 2.4738633e-01 -7.5098511e-02
2.6430456e+00 2.0655767e-01 -6.4137111e-02
2.6009300e+00 1.6710000e-01 -5.1355600e-02
2.6009300e+00 1.6710000e-01 -5.1355600e-02
2.5767322e+00 1.4204280e-01 -4.3973344e-02
2.5503722e+00 1.1982447e-01 -3.4255411e-02
2.5218500e+00 1.0044500e-01 -2.2201800e-02
2.4911656e+00 8.3904400e-02 -7.8125111e-03
2.4583189e+00 7.0202667e-02 8.9124556e-03
2.4233100e+00 5.9339800e-02 2.7973100e-02
2.4233100e+00 5.9339800e-02 2.7973100e-02
2.3827467e+00 4.7029589e-02 4.5415056e-02
2.3415100e+00 3.5940689e-02 6.0708156e-02
2.2996000e+00 2.6073100e-02 7.3852400e-02
2.2570167e+00 1.7426822e-02 8.4847789e-02
2.2137600e+00 1.0001856e-02 9.3694322e-02
2.1698300e+00 3.7982000e-03 1.0039200e-01
2.1698300e+00 3.7982000e-03 1.0039200e-01
2.1174000e+00 -1.6851056e-03 1.0314393e-01
2.0647867e+00 -6.2785356e-03 1.0334793e-01
2.0119900e+00 -9.9820900e-03 1.0100400e-01
1.9590100e+00 -1.2795769e-02 9.6112133e-02
1.9058467e+00 -1.4719572e-02 8.8672333e-02
1.8525000e+00 -1.5753500e-02 7.8684600e-02
1.8525000e+00 -1.5753500e-02 7.8684600e-02
1.8068278e+00 -1.3554556e-02 7.1057956e-02
1.7623244e+00 -1.0395002e-02 6.3103789e-02
1.7189900e+00 -6.2748400e-03 5.4822100e-02
1.6768244e+00 -1.1940689e-03 4.6212889e-02
1.6358278e+00 4.8473111e-03 3.7276156e-02
1.5960000e+00 1.1849300e-02 2.8011900e-02
1.5960000e+00 1.1849300e-02 2.8011900e-02
1.5557922e+00 1.7389789e-02 1.7062311e-02
1.5153422e+00 2.3467789e-02 6.0559711e-03
1.4746500e+00 3.0083300e-02 -5.0071200e-03
1.4337156e+00 3.7236322e-02 -1.6126962e-02
1.3925389e+00 4.4926856e-02 -2.7303556e-02
1.3511200e+00 5.3154900e-02 -3.8536900e-02
1.3511200e+00 5.3154900e-02 -3.8536900e-02
1.3123689e+00 5.9841833e-02 -4.8927022e-02
1.2712789e+00 6.7897867e-02 -5.8143322e-02
1.2278500e+00 7.7323000e-02 -6.6185800e-02
1.1820822e+00 8.8117233e-02 -7.3054456e-02
1.1339756e+00 1.0028057e-01 -7.8749289e-02
1.0835300e+00 1.1381300e-01 -8.3270300e-02
1.0835300e+00 1.1381300e-01 -8.3270300e-02
1.0269340e+00 1.3089522e-01 -8.5964911e-02
9.7054933e-01 1.4505522e-01 -8.7605011e-02
9.1437600e-01 1.5629300e-01 -8.8190600e-02
8.5841400e-01 1.6460856e-01 -8.7721678e-02
8.0266333e-01 1.7000189e-01 -8.6198244e-02
7.4712400e-01 1.7247300e-01 -8.3620300e-02
7.4712400e-01 1.7247300e-01 -8.3620300e-02
6.8673178e-01 1.7189867e-01 -8.0293711e-02
6.2899711e-01 1.6922967e-01 -7.5255611e-02
5.7392000e-01 1.6446600e-01 -6.8506000e-02
5.2150044e-01 1.5760767e-01 -6.0044878e-02
4.7173844e-01 1.4865467e-01 -4.9872244e-02
4.2463400e-01 1.3760700e-01 -3.7988100e-02
4.2463400e-01 1.3760700e-01 -3.7988100e-02
3.7411022e-01 1.2752316e-01 -1.7350411e-02
3.2592189e-01 1.1638849e-01 1.6951889e-03
2.8006900e-01 1.0420300e-01 1.9148700e-02
2.3655156e-01 9.0966689e-02 3.5010122e-02
1.9536956e-01 7.6679556e-02 4.9279456e-02
1.5652300e-01 6.1341600e-02 6.1956700e-02
1.5652300e-01 6.1341600e-02 6.1956700e-02
1.3732460e-01 5.2244300e-02 5.2942806e-02
1.1673620e-01 4.1391267e-02 4.3384773e-02
9.4757800e-02 2.8782500e-02 3.3282600e-02
7.1389400e-02 1.4418000e-02 2.2636287e-02
4.6631000e-02 -1.7022333e-03 1.1445835e-02
2.0482600e-02 -1.9578200e-02 -2.8875700e-04
8.6865000e+00 5.4813500e-01 1.3943100e-01
8.6670733e+00 5.0052300e-01 1.5322433e-01
8.6465933e+00 4.5487100e-01 1.6668100e-01
8.6250600e+00 4.1117900e-01 1.7980100e-01
8.6024733e+00 3.6944700e-01 1.9258433e-01
8.5788333e+00 3.2967500e-01 2.0503100e-01
8.5541400e+00 2.9186300e-01 2.1714100e-01
8.5541400e+00 2.9186300e-01 2.1714100e-01
8.5316300e+00 2.6503944e-01 2.2669333e-01
8.5080067e+00 2.4513411e-01 2.3526000e-01
8.4832700e+00 2.3214700e-01 2.4284100e-01
8.4574200e+00 2.2607811e-01 2.4943633e-01
8.4304567e+00 2.2692744e-01 2.5504600e-01
8.4023800e+00 2.3469500e-01 2.5967000e-01
8.4023800e+00 2.3469500e-01 2.5967000e-01
8.3758633e+00 2.4098822e-01 2.6225167e-01
8.3473900e+00 2.4836622e-01 2.6492067e-01
8.3169600e+00 2.5682900e-01 2.6767700e-01
8.2845733e+00 2.6637656e-01 2.7052067e-01
8.2502300e+00 2.7700889e-01 2.7345167e-01
8.2139300e+00 2.8872600e-01 2.7647000e-01
8.2139300e+00 2.8872600e-01 2.7647000e-01
8.1649378e+00 3.0402889e-01 2.8363878e-01
8.1179044e+00 3.1177622e-01 2.9057311e-01
8.0728300e+00 3.1196800e-01 2.9727300e-01
8.0297144e+00 3.0460422e-01 3.0373844e-01
7.9885578e+00 2.8968489e-01 3.0996944e-01
7.9493600e+00 2.6721000e-01 3.1596600e-01
7.9493600e+00 2.6721000e-01 3.1596600e-01
7.9177044e+00 2.4050522e-01 3.1446022e-01
7.8876978e+00 2.1333889e-01 3.1017489e-01
7.8593400e+00 1.8571100e-01 3.0311000e-01
7.8326311e+00 1.5762156e-01 2.9326556e-01
7.8075711e+00 1.2907056e-01 2.8064156e-01
7.7841600e+00 1.0005800e-01 2.6523800e-01
7.7841600e+00 1.0005800e-01 2.6523800e-01
7.7531756e+00 1.3007967e-01 2.6826878e-01
7.7190556e+00 1.5854000e-01 2.6984711e-01
7.6818000e+00 1.8543900e-01 2.6997300e-01
7.6414089e+00 2.1077667e-01 2.6864644e-01
7.5978822e+00 2.3455300e-01 2.6586744e-01
7.5512200e+00 2.5676800e-01 2.6163600e-01
7.5512200e+00 2.5676800e-01 2.6163600e-01
7.5047400e+00 2.7238411e-01 2.4969678e-01
7.4604800e+00 2.8180444e-01 2.3560578e-01
7.4184400e+00 2.8502900e-01 2.1936300e-01
7.3786200e+00 2.8205778e-01 2.0096844e-01
7.3410200e+00 2.7289078e-01 1.8042211e-01
7.3056400e+00 2.5752800e-01 1.5772400e-01
7.3056400e+00 2.5752800e-01 1.5772400e-01
7.2729856e+00 2.3425244e-01 1.4191080e-01
7.2378956e+00 2.1067278e-01 1.2519213e-01
7.2003700e+00 1.8678900e-01 1.0756800e-01
7.1604089e+00 1.6260111e-01 8.9038400e-02
7.1180122e+00 1.3810911e-01 6.9603333e-02
7.0731800e+00 1.1331300e-01 4.9262800e-02
7.0731800e+00 1.1331300e-01 4.9262800e-02
7.0195667e+00 9.1735344e-02 2.4664122e-02
6.9630833e+00 7.7087678e-02 2.7665222e-03
6.9037300e+00 6.9370000e-02 -1.6430000e-02
6.8415067e+00 6.8582311e-02 -3.2925444e-02
6.7764133e+00 7.4724611e-02 -4.6719811e-02
6.7084500e+00 8.7796900e-02 -5.7813100e-02
6.7084500e+00 8.7796900e-02 -5.7813100e-02
6.6437211e+00 1.1234550e-01 -6.0806633e-02
6.5846944e+00 1.3641087e-01 -6.3037133e-02
6.5313700e+00 1.5999300e-01 -6.4504600e-02
6.4837478e+00 1.8309190e-01 -6.5209033e-02
6.4418278e+00 2.0570757e-01 -6.5150433e-02
6.4056100e+00 2.2784000e-01 -6.4328800e-02
6.5383200e+00 2.8907300e-01 -1.0645500e-01
6.5241433e+00 2.7292111e-01 -1.0213441e-01
6.5067900e+00 2.5914778e-01 -9.6733644e-02
6.4862600e+00 2.4775300e-01 -9.0252700e-02
6.4625533e+00 2.3873678e-01 -8.2691578e-02
6.4356700e+00 2.3209911e-01 -7.4050278e-02
6.4056100e+00 2.2784000e-01 -6.4328800e-02
8.2727600e+00 5.9247300e-01 1.5768900e-01
8.2454900e+00 5.7406711e-01 1.4072361e-01
8.2175267e+00 5.5504978e-01 1.2241628e-01
8.1888700e+00 5.3542100e-01 1.0276700e-01
8.1595200e+00 5.1518078e-01 8.1775778e-02
8.1294767e+00 4.9432911e-01 5.9442611e-02
8.0987400e+00 4.7286600e-01 3.5767500e-02
8.0987400e+00 4.7286600e-01 3.5767500e-02
8.0675689e+00 4.4481467e-01 1.0932233e-02
8.0371922e+00 4.1816267e-01 -7.5696000e-03
8.0076100e+00 3.9291000e-01 -1.9738000e-02
7.9788222e+00 3.6905667e-01 -2.5572967e-02
7.9508289e+00 3.4660267e-01 -2.5074500e-02
7.9236300e+00 3.2554800e-01 -1.8242600e-02
7.9236300e+00 3.2554800e-01 -1.8242600e-02
7.8849456e+00 3.2057067e-01 1.0715778e-02
7.8440822e+00 3.1814633e-01 3.9346444e-02
7.8010400e+00 3.1827500e-01 6.7649400e-02
7.7558189e+00 3.2095667e-01 9.5624644e-02
7.7084189e+00 3.2619133e-01 1.2327218e-01
7.6588400e+00 3.3397900e-01 1.5059200e-01
7.6588400e+00 3.3397900e-01 1.5059200e-01
7.6112289e+00 3.4257733e-01 1.7735022e-01
7.5612056e+00 3.4842633e-01 2.0313356e-01
7.5087700e+00 3.5152600e-01 2.2794200e-01
7.4539222e+00 3.5187633e-01 2.5177556e-01
7.3966622e+00 3.4947733e-01 2.7463422e-01
7.3369900e+00 3.4432900e-01 2.9651800e-01
7.3369900e+00 3.4432900e-01 2.9651800e-01
7.2698411e+00 3.1840044e-01 2.8142214e-01
7.1990944e+00 2.9893011e-01 2.5639414e-01
7.1247500e+00 2.8591800e-01 2.2143400e-01
7.0468078e+00 2.7936411e-01 1.7654171e-01
6.9652678e+00 2.7926844e-01 1.2171728e-01
6.8801300e+00 2.8563100e-01 5.6960700e-02
6.8801300e+00 2.8563100e-01 5.6960700e-02
6.8056867e+00 2.9342578e-01 9.9332778e-03
6.7382333e+00 2.9833211e-01 -2.9177556e-02
6.6777700e+00 3.0035000e-01 -6.0371800e-02
6.6242967e+00 2.9947944e-01 -8.3649456e-02
6.5778133e+00 2.9572044e-01 -9.9010522e-02
6.5383200e+00 2.8907300e-01 -1.0645500e-01
4.8365800e+00 5.4843900e-01 -1.0262400e-01
4.8785522e+00 5.1164178e-01 -9.2914656e-02
4.9280622e+00 4.7579144e-01 -8.6507756e-02
4.9851100e+00 4.4088800e-01 -8.3403300e-02
5.0496956e+00 4.0693144e-01 -8.3601289e-02
5.1218189e+00 3.7392178e-01 -8.7101722e-02
5.2014800e+00 3.4185900e-01 -9.3904600e-02
5.2014800e+00 3.4185900e-01 -9.3904600e-02
5.2887111e+00 3.3268222e-01 -9.3900956e-02
5.3769011e+00 3.3151122e-01 -9.1926089e-02
5.4660500e+00 3.3834600e-01 -8.7980000e-02
5.5561578e+00 3.5318656e-01 -8.2062689e-02
5.6472244e+00 3.7603289e-01 -7.4174156e-02
5.7392500e+00 4.0688500e-01 -6.4314400e-02
5.7392500e+00 4.0688500e-01 -6.4314400e-02
5.8234433e+00 4.3925744e-01 -6.0822478e-02
5.9065433e+00 4.6391711e-01 -5.8728711e-02
5.9885500e+00 4.8086400e-01 -5.8033100e-02
6.0694633e+00 4.9009811e-01 -5.8735644e-02
6.1492833e+00 4.9161944e-01 -6.0836344e-02
6.2280100e+00 4.8542800e-01 -6.4335200e-02
6.2280100e+00 4.8542800e-01 -6.4335200e-02
6.2972144e+00 4.5640633e-01 -7.1375389e-02
6.3594244e+00 4.2590300e-01 -7.8407489e-02
6.4146400e+00 3.9391800e-01 -8.5431500e-02
6.4628611e+00 3.6045133e-01 -9.2447422e-02
6.5040878e+00 3.2550300e-01 -9.9455256e-02
6.5383200e+00 2.8907300e-01 -1.0645500e-01