# vtk DataFile Version 2.0
test
ASCII
DATASET POLYDATA
POINTS 4361 float
6.4054522e+00 7.4543565e+00 1.1857439e+01
6.5240300e+00 7.5023731e+00 1.1736277e+01
6.6437110e+00 7.5485667e+00 1.1615538e+01
6.7644950e+00 7.5929371e+00 1.1495220e+01
6.8863822e+00 7.6354843e+00 1.1375323e+01
7.0093725e+00 7.6762084e+00 1.1255848e+01
7.1334658e+00 7.7151094e+00 1.1136795e+01
7.1334658e+00 7.7151094e+00 1.1136795e+01
7.2601712e+00 7.7647449e+00 1.1021500e+01
7.3923547e+00 7.8123750e+00 1.0913034e+01
7.5300165e+00 7.8579995e+00 1.0811398e+01
7.6731563e+00 7.9016186e+00 1.0716591e+01
7.8217744e+00 7.9432321e+00 1.0628614e+01
7.9758706e+00 7.9828401e+00 1.0547466e+01
7.9758706e+00 7.9828401e+00 1.0547466e+01
8.1439814e+00 8.0139645e+00 1.0491125e+01
8.3138918e+00 8.0435845e+00 1.0451819e+01
8.4856020e+00 8.0717000e+00 1.0429547e+01
8.6591119e+00 8.0983112e+00 1.0424311e+01
8.8344216e+00 8.1234180e+00 1.0436109e+01
9.0115311e+00 8.1470204e+00 1.0464941e+01
9.0115311e+00 8.1470204e+00 1.0464941e+01
9.1863656e+00 8.1667271e+00 1.0491444e+01
9.3608200e+00 8.1848257e+00 1.0521104e+01
9.5348942e+00 8.2013162e+00 1.0553922e+01
9.7085882e+00 8.2161986e+00 1.0589897e+01
9.8819020e+00 8.2294729e+00 1.0629030e+01
1.0054836e+01 8.2411391e+00 1.0671320e+01
1.0054836e+01 8.2411391e+00 1.0671320e+01
1.0227360e+01 8.2509338e+00 1.0716256e+01
1.0400864e+01 8.2591028e+00 1.0756444e+01
1.0575348e+01 8.2656461e+00 1.0791885e+01
1.0750812e+01 8.2705637e+00 1.0822579e+01
1.0927256e+01 8.2738556e+00 1.0848525e+01
1.1104680e+01 8.2755219e+00 1.0869724e+01
1.1104680e+01 8.2755219e+00 1.0869724e+01
1.1284676e+01 8.2744153e+00 1.0882582e+01
1.1462626e+01 8.2716783e+00 1.0880645e+01
1.1638529e+01 8.2673107e+00 1.0863911e+01
1.1812387e+01 8.2613127e+00 1.0832381e+01
1.1984199e+01 8.2536842e+00 1.0786054e+01
1.2153965e+01 8.2444252e+00 1.0724932e+01
1.2153965e+01 8.2444252e+00 1.0724932e+01
1.2315867e+01 8.2335718e+00 1.0645369e+01
1.2469221e+01 8.2253130e+00 1.0554561e+01
1.2614027e+01 8.2196487e+00 1.0452507e+01
1.2750285e+01 8.2165791e+00 1.0339208e+01
1.2877996e+01 8.2161041e+00 1.0214664e+01
1.2997158e+01 8.2182236e+00 1.0078875e+01
1.2997158e+01 8.2182236e+00 1.0078875e+01
1.3101796e+01 8.2481277e+00 9.9363394e+00
1.3205894e+01 8.2739005e+00 9.7926025e+00
1.3309454e+01 8.2955418e+00 9.6476644e+00
1.3412474e+01 8.3130517e+00 9.5015252e+00
1.3514954e+01 8.3264302e+00 9.3541847e+00
1.3616896e+01 8.3356774e+00 9.2056431e+00
1.3616896e+01 8.3356774e+00 9.2056431e+00
1.3505562e+01 8.2581129e+00 9.0756458e+00
1.3393889e+01 8.1762427e+00 8.9494650e+00
1.3281878e+01 8.0900668e+00 8.8271008e+00
1.3169528e+01 7.9995851e+00 8.7085532e+00
1.3056840e+01 7.9047977e+00 8.5938222e+00
1.2943813e+01 7.8057046e+00 8.4829077e+00
1.2943813e+01 7.8057046e+00 8.4829077e+00
1.2829477e+01 7.7289644e+00 8.3568953e+00
1.2718469e+01 7.6505454e+00 8.2293777e+00
1.2610789e+01 7.5704477e+00 8.1003548e+00
1.2506435e+01 7.4886712e+00 7.9698267e+00
1.2405409e+01 7.4052160e+00 7.8377933e+00
1.2307710e+01 7.3200820e+00 7.7042548e+00
1.2307710e+01 7.3200820e+00 7.7042548e+00
1.2214986e+01 7.2394370e+00 7.5637366e+00
1.2129382e+01 7.1564188e+00 7.4211484e+00
1.2050899e+01 7.0710275e+00 7.2764903e+00
1.1979535e+01 6.9832629e+00 7.1297621e+00
1.1915291e+01 6.8931251e+00 6.9809639e+00
1.1858167e+01 6.8006141e+00 6.8300956e+00
1.1858167e+01 6.8006141e+00 6.8300956e+00
1.1815914e+01 6.7055281e+00 6.6773520e+00
1.1781638e+01 6.6088939e+00 6.5242685e+00
1.1755339e+01 6.5107115e+00 6.3708451e+00
1.1737017e+01 6.4109809e+00 6.2170819e+00
1.1726671e+01 6.3097020e+00 6.0629787e+00
1.1724303e+01 6.2068750e+00 5.9085357e+00
1.1724303e+01 6.2068750e+00 5.9085357e+00
1.1730923e+01 6.1024664e+00 5.7558092e+00
1.1744329e+01 5.9961219e+00 5.6057757e+00
1.1764521e+01 5.8878415e+00 5.4584352e+00
1.1791500e+01 5.7776250e+00 5.3137877e+00
1.1825265e+01 5.6654726e+00 5.1718331e+00
1.1865816e+01 5.5513842e+00 5.0325716e+00
1.1865816e+01 5.5513842e+00 5.0325716e+00
1.1908294e+01 5.4360645e+00 4.8956137e+00
1.1952381e+01 5.3201174e+00 4.7597494e+00
1.1998077e+01 5.2035429e+00 4.6249786e+00
1.2045380e+01 5.0863409e+00 4.4913015e+00
1.2094292e+01 4.9685116e+00 4.3587180e+00
1.2144813e+01 4.8500548e+00 4.2272280e+00
1.2144813e+01 4.8500548e+00 4.2272280e+00
1.2194003e+01 4.7304768e+00 4.0966307e+00
1.2239720e+01 4.6080616e+00 3.9672584e+00
1.2281964e+01 4.4828092e+00 3.8391110e+00
1.2320736e+01 4.3547196e+00 3.7121887e+00
1.2356035e+01 4.2237929e+00 3.5864914e+00
1.2387860e+01 4.0900290e+00 3.4620191e+00
1.2387860e+01 4.0900290e+00 3.4620191e+00
1.2415306e+01 3.9534698e+00 3.3392462e+00
1.2436051e+01 3.8160833e+00 3.2168151e+00
1.2450095e+01 3.6778694e+00 3.0947257e+00
1.2457436e+01 3.5388282e+00 2.9729780e+00
1.2458077e+01 3.3989595e+00 2.8515721e+00
1.2452016e+01 3.2582635e+00 2.7305080e+00
1.2452016e+01 3.2582635e+00 2.7305080e+00
1.2437733e+01 3.1154447e+00 2.6115361e+00
1.2415415e+01 2.9725591e+00 2.4947911e+00
1.2385062e+01 2.8296068e+00 2.3802729e+00
1.2346673e+01 2.6865877e+00 2.2679817e+00
1.2300248e+01 2.5435019e+00 2.1579172e+00
1.2245788e+01 2.4003493e+00 2.0500797e+00
1.2245788e+01 2.4003493e+00 2.0500797e+00
1.2184156e+01 2.2612172e+00 1.9413105e+00
1.2117062e+01 2.1231710e+00 1.8347691e+00
1.2044509e+01 1.9862107e+00 1.7304554e+00
1.1966494e+01 1.8503362e+00 1.6283694e+00
1.1883019e+01 1.7155477e+00 1.5285111e+00
1.1794083e+01 1.5818451e+00 1.4308806e+00
1.1794083e+01 1.5818451e+00 1.4308806e+00
1.1695758e+01 1.4505818e+00 1.3382102e+00
1.1594833e+01 1.3202053e+00 1.2475034e+00
1.1491305e+01 1.1907156e+00 1.1587600e+00
1.1385177e+01 1.0621128e+00 1.0719801e+00
1.1276447e+01 9.3439676e-01 9.8716380e-01
1.1165116e+01 8.0756758e-01 9.0431096e-01
1.1165116e+01 8.0756758e-01 9.0431096e-01
1.1055211e+01 6.7734152e-01 8.2155397e-01
1.0944996e+01 5.4746347e-01 7.3941154e-01
1.0834470e+01 4.1793340e-01 6.5788369e-01
1.0723633e+01 2.8875134e-01 5.7697040e-01
1.0612486e+01 1.5991727e-01 4.9667168e-01
1.0501028e+01 3.1431200e-02 4.1698753e-01
4.0395700e+00 6.4681721e+00 1.1751869e+01
3.9932120e+00 6.4172831e+00 1.1573375e+01
3.9455686e+00 6.3604189e+00 1.1397455e+01
3.8966398e+00 6.2975795e+00 1.1224108e+01
3.8464257e+00 6.2287650e+00 1.1053334e+01
3.7949261e+00 6.1539752e+00 1.0885133e+01
3.7421412e+00 6.0732103e+00 1.0719506e+01
3.7421412e+00 6.0732103e+00 1.0719506e+01
3.7026007e+00 6.0114554e+00 1.0542687e+01
3.6687818e+00 5.9475330e+00 1.0365958e+01
3.6406846e+00 5.8814431e+00 1.0189318e+01
3.6183090e+00 5.8131856e+00 1.0012767e+01
3.6016550e+00 5.7427605e+00 9.8363059e+00
3.5907226e+00 5.6701679e+00 9.6599342e+00
3.5907226e+00 5.6701679e+00 9.6599342e+00
3.5884445e+00 5.5928311e+00 9.4845636e+00
3.5936562e+00 5.5119731e+00 9.3120452e+00
3.6063576e+00 5.4275940e+00 9.1423790e+00
3.6265487e+00 5.3396936e+00 8.9755650e+00
3.6542296e+00 5.2482721e+00 8.8116031e+00
3.6894002e+00 5.1533295e+00 8.6504935e+00
3.6894002e+00 5.1533295e+00 8.6504935e+00
3.7444140e+00 5.0508511e+00 8.4975594e+00
3.8120811e+00 4.9458354e+00 8.3554180e+00
3.8924016e+00 4.8382823e+00 8.2240692e+00
3.9853755e+00 4.7281918e+00 8.1035130e+00
4.0910027e+00 4.6155640e+00 7.9937494e+00
4.2092833e+00 4.5003987e+00 7.8947784e+00
4.2092833e+00 4.5003987e+00 7.8947784e+00
4.3247843e+00 4.3865862e+00 7.7968268e+00
4.4403436e+00 4.2721964e+00 7.6997848e+00
4.5559612e+00 4.1572294e+00 7.6036525e+00
4.6716370e+00 4.0416850e+00 7.5084297e+00
4.7873711e+00 3.9255634e+00 7.4141166e+00
4.9031635e+00 3.8088646e+00 7.3207130e+00
4.9031635e+00 3.8088646e+00 7.3207130e+00
5.0203136e+00 3.6891163e+00 7.2314496e+00
5.1325969e+00 3.5667414e+00 7.1401754e+00
5.2400132e+00 3.4417397e+00 7.0468906e+00
5.3425627e+00 3.3141112e+00 6.9515950e+00
5.4402453e+00 3.1838560e+00 6.8542887e+00
5.5330609e+00 3.0509741e+00 6.7549716e+00
5.5330609e+00 3.0509741e+00 6.7549716e+00
5.6169998e+00 2.9161220e+00 6.6490813e+00
5.6898087e+00 2.7807494e+00 6.5379648e+00
5.7514878e+00 2.6448563e+00 6.4216224e+00
5.8020368e+00 2.5084427e+00 6.3000539e+00
5.8414560e+00 2.3715087e+00 6.1732593e+00
5.8697452e+00 2.2340541e+00 6.0412388e+00
5.8697452e+00 2.2340541e+00 6.0412388e+00
5.8806737e+00 2.0984851e+00 5.9046233e+00
5.8811812e+00 1.9644736e+00 5.7675645e+00
5.8712678e+00 1.8320195e+00 5.6300626e+00
5.8509334e+00 1.7011230e+00 5.4921173e+00
5.8201780e+00 1.5717840e+00 5.3537288e+00
5.7790016e+00 1.4440025e+00 5.2148971e+00
5.7790016e+00 1.4440025e+00 5.2148971e+00
5.7323610e+00 1.3199655e+00 5.0743302e+00
5.6816925e+00 1.1977903e+00 4.9337573e+00
5.6269960e+00 1.0774768e+00 4.7931784e+00
5.5682717e+00 9.5902513e-01 4.6525935e+00
5.5055195e+00 8.4243521e-01 4.5120026e+00
5.4387394e+00 7.2770706e-01 4.3714056e+00
5.4387394e+00 7.2770706e-01 4.3714056e+00
5.3703979e+00 6.0836526e-01 4.2354224e+00
5.3011326e+00 4.8884669e-01 4.0999919e+00
5.2309434e+00 3.6915135e-01 3.9651142e+00
5.1598304e+00 2.4927924e-01 3.8307891e+00
5.0877935e+00 1.2923036e-01 3.6970167e+00
5.0148328e+00 9.0047100e-03 3.5637970e+00
2.8187200e+00 6.2794544e+00 1.3824334e+01
2.9000541e+00 6.3901819e+00 1.3683865e+01
2.9928878e+00 6.4984348e+00 1.3552750e+01
3.0972211e+00 6.6042132e+00 1.3430990e+01
3.2130539e+00 6.7075170e+00 1.3318585e+01
3.3403863e+00 6.8083462e+00 1.3215534e+01
3.4792182e+00 6.9067009e+00 1.3121838e+01
3.4792182e+00 6.9067009e+00 1.3121838e+01
3.6478086e+00 6.9860004e+00 1.3066560e+01
3.8216858e+00 7.0542426e+00 1.3023259e+01
4.0008500e+00 7.1114274e+00 1.2991936e+01
4.1853011e+00 7.1575548e+00 1.2972590e+01
4.3750391e+00 7.1926248e+00 1.2965221e+01
4.5700640e+00 7.2166374e+00 1.2969830e+01
4.5700640e+00 7.2166374e+00 1.2969830e+01
4.7656946e+00 7.2324027e+00 1.2975142e+01
4.9572615e+00 7.2492358e+00 1.2963227e+01
5.1447648e+00 7.2671369e+00 1.2934085e+01
5.3282043e+00 7.2861060e+00 1.2887717e+01
5.5075802e+00 7.3061429e+00 1.2824121e+01
5.6828925e+00 7.3272478e+00 1.2743299e+01
5.6828925e+00 7.3272478e+00 1.2743299e+01
5.8316437e+00 7.3565108e+00 1.2620959e+01
5.9690652e+00 7.3825425e+00 1.2488498e+01
6.0951567e+00 7.4053429e+00 1.2345916e+01
6.2099184e+00 7.4249121e+00 1.2193212e+01
[...]
POINT_DATA 4361
VECTORS U float
3.1085500e+00 9.9150800e-01 -9.8187100e-03
3.1312922e+00 9.6802856e-01 2.7139944e-03
3.1525022e+00 9.4240322e-01 1.3348998e-02
3.1721800e+00 9.1463200e-01 2.2086300e-02
3.1903256e+00 8.8471489e-01 2.8925901e-02
3.2069389e+00 8.5265189e-01 3.3867801e-02
3.2220200e+00 8.1844300e-01 3.6912000e-02
3.2220200e+00 8.1844300e-01 3.6912000e-02
3.2335356e+00 7.9377078e-01 3.9491914e-02
3.2433389e+00 7.6756078e-01 3.8775914e-02
3.2514300e+00 7.3981300e-01 3.4764000e-02
3.2578089e+00 7.1052744e-01 2.7456171e-02
3.2624756e+00 6.7970411e-01 1.6852428e-02
3.2654300e+00 6.4734300e-01 2.9527700e-03
3.2654300e+00 6.4734300e-01 2.9527700e-03
3.2739000e+00 6.0919878e-01 -4.6863167e-03
3.2814233e+00 5.7341311e-01 -8.0635533e-03
3.2880000e+00 5.3998600e-01 -7.1789400e-03
3.2936300e+00 5.0891744e-01 -2.0324767e-03
3.2983133e+00 4.8020744e-01 7.3758367e-03
3.3020500e+00 4.5385600e-01 2.1046000e-02
3.3020500e+00 4.5385600e-01 2.1046000e-02
3.3049356e+00 4.2821544e-01 2.4120700e-02
3.3073856e+00 4.0435878e-01 2.6677233e-02
3.3094000e+00 3.8228600e-01 2.8715600e-02
3.3109789e+00 3.6199711e-01 3.0235800e-02
3.3121222e+00 3.4349211e-01 3.1237833e-02
3.3128300e+00 3.2677100e-01 3.1721700e-02
3.3128300e+00 3.2677100e-01 3.1721700e-02
3.3126778e+00 3.1080133e-01 3.5011822e-02
3.3125044e+00 2.9596233e-01 3.7606656e-02
3.3123100e+00 2.8225400e-01 3.9506200e-02
3.3120944e+00 2.6967633e-01 4.0710456e-02
3.3118578e+00 2.5822933e-01 4.1219422e-02
3.3116000e+00 2.4791300e-01 4.1033100e-02
3.3116000e+00 2.4791300e-01 4.1033100e-02
3.3112078e+00 2.3768067e-01 4.1228800e-02
3.3103344e+00 2.2883167e-01 3.9822267e-02
3.3089800e+00 2.2136600e-01 3.6813500e-02
3.3071444e+00 2.1528367e-01 3.2202500e-02
3.3048278e+00 2.1058467e-01 2.5989267e-02
3.3020300e+00 2.0726900e-01 1.8173800e-02
3.3020300e+00 2.0726900e-01 1.8173800e-02
3.2988611e+00 2.0551411e-01 1.0822261e-02
3.2939744e+00 2.0798278e-01 2.4793444e-03
3.2873700e+00 2.1467500e-01 -6.8549500e-03
3.2790478e+00 2.2559078e-01 -1.7180622e-02
3.2690078e+00 2.4073011e-01 -2.8497672e-02
3.2572500e+00 2.6009300e-01 -4.0806100e-02
3.2572500e+00 2.6009300e-01 -4.0806100e-02
3.2372767e+00 3.0767378e-01 -5.5685667e-02
3.2194033e+00 3.5142278e-01 -6.9448533e-02
3.2036300e+00 3.9134000e-01 -8.2094700e-02
3.1899567e+00 4.2742544e-01 -9.3624167e-02
3.1783833e+00 4.5967911e-01 -1.0403693e-01
3.1689100e+00 4.8810100e-01 -1.1333300e-01
3.1689100e+00 4.8810100e-01 -1.1333300e-01
3.1524378e+00 4.7418444e-01 -9.9090444e-02
3.1342844e+00 4.5647678e-01 -8.0422144e-02
3.1144500e+00 4.3497800e-01 -5.7328100e-02
3.0929344e+00 4.0968811e-01 -2.9808311e-02
3.0697378e+00 3.8060711e-01 2.1372222e-03
3.0448600e+00 3.4773500e-01 3.8508500e-02
3.0448600e+00 3.4773500e-01 3.8508500e-02
3.0161578e+00 3.3826678e-01 6.1118056e-02
2.9860144e+00 3.2867844e-01 8.3781222e-02
2.9544300e+00 3.1897000e-01 1.0649800e-01
2.9214044e+00 3.0914144e-01 1.2926839e-01
2.8869378e+00 2.9919278e-01 1.5209239e-01
2.8510300e+00 2.8912400e-01 1.7497000e-01
2.8510300e+00 2.8912400e-01 1.7497000e-01
2.8130233e+00 2.8582978e-01 1.9314933e-01
2.7728367e+00 2.8220244e-01 2.1000733e-01
2.7304700e+00 2.7824200e-01 2.2554400e-01
2.6859233e+00 2.7394844e-01 2.3975933e-01
2.6391967e+00 2.6932178e-01 2.5265333e-01
2.5902900e+00 2.6436200e-01 2.6422600e-01
2.5902900e+00 2.6436200e-01 2.6422600e-01
2.5438789e+00 2.5873767e-01 2.7318378e-01
2.4955656e+00 2.5254267e-01 2.7941478e-01
2.4453500e+00 2.4577700e-01 2.8291900e-01
2.3932322e+00 2.3844067e-01 2.8369644e-01
2.3392122e+00 2.3053367e-01 2.8174711e-01
2.2832900e+00 2.2205600e-01 2.7707100e-01
2.2832900e+00 2.2205600e-01 2.7707100e-01
2.2282122e+00 2.1209944e-01 2.7003411e-01
2.1745489e+00 2.0060011e-01 2.6251278e-01
2.1223000e+00 1.8755800e-01 2.5450700e-01
2.0714656e+00 1.7297311e-01 2.4601678e-01
2.0220456e+00 1.5684544e-01 2.3704211e-01
1.9740400e+00 1.3917500e-01 2.2758300e-01
1.9740400e+00 1.3917500e-01 2.2758300e-01
1.9250956e+00 1.2069576e-01 2.1761722e-01
1.8762456e+00 1.0259742e-01 2.0674922e-01
1.8274900e+00 8.4880000e-02 1.9497900e-01
1.7788289e+00 6.7543489e-02 1.8230656e-01
1.7302622e+00 5.0587889e-02 1.6873189e-01
1.6817900e+00 3.4013200e-02 1.5425500e-01
1.6817900e+00 3.4013200e-02 1.5425500e-01
1.6319911e+00 1.7763811e-02 1.3939844e-01
1.5802411e+00 7.8114444e-04 1.2502544e-01
1.5265400e+00 -1.6934800e-02 1.1113600e-01
1.4708878e+00 -3.5384022e-02 9.7730111e-02
1.4132844e+00 -5.4566522e-02 8.4807778e-02
1.3537300e+00 -7.4482300e-02 7.2369000e-02
1.3537300e+00 -7.4482300e-02 7.2369000e-02
1.2926706e+00 -9.4360167e-02 6.1576556e-02
1.2302906e+00 -1.1187907e-01 5.1155022e-02
1.1665900e+00 -1.2703900e-01 4.1104400e-02
1.1015689e+00 -1.3983997e-01 3.1424689e-02
1.0352272e+00 -1.5028197e-01 2.2115889e-02
9.6756500e-01 -1.5836500e-01 1.3178000e-02
9.6756500e-01 -1.5836500e-01 1.3178000e-02
8.9983489e-01 -1.6453700e-01 6.7715767e-03
8.3395722e-01 -1.6831167e-01 1.9519433e-03
7.6993200e-01 -1.6968900e-01 -1.2809000e-03
7.0775922e-01 -1.6866900e-01 -2.9269533e-03
6.4743889e-01 -1.6525167e-01 -2.9862167e-03
5.8897100e-01 -1.5943700e-01 -1.4586900e-03
5.8897100e-01 -1.5943700e-01 -1.4586900e-03
5.3571278e-01 -1.4865971e-01 -2.6321933e-03
4.8629778e-01 -1.3730504e-01 -3.6737100e-03
4.4072600e-01 -1.2537300e-01 -4.5832400e-03
3.9899744e-01 -1.1286358e-01 -5.3607833e-03
3.6111211e-01 -9.9776778e-02 -6.0063400e-03
3.2707000e-01 -8.6112600e-02 -6.5199100e-03
3.2707000e-01 -8.6112600e-02 -6.5199100e-03
2.9071367e-01 -7.2000057e-02 -4.6136778e-03
2.5652500e-01 -5.8361323e-02 -2.4769384e-03
2.2450400e-01 -4.5196400e-02 -1.0969200e-04
1.9465067e-01 -3.2505287e-02 2.4880616e-03
1.6696500e-01 -2.0287983e-02 5.3163222e-03
1.4144700e-01 -8.5444900e-03 8.3750900e-03
1.4144700e-01 -8.5444900e-03 8.3750900e-03
1.1987087e-01 -1.3961278e-03 1.0323028e-02
9.9326533e-02 5.5579356e-03 1.2300698e-02
7.9814000e-02 1.2317700e-02 1.4308100e-02
6.1333267e-02 1.8883166e-02 1.6345234e-02
4.3884333e-02 2.5254332e-02 1.8412101e-02
2.7467200e-02 3.1431200e-02 2.0508700e-02
2.8214500e+00 1.2566600e+00 1.0731400e-01
2.7976789e+00 1.2420022e+00 1.1634111e-01
2.7703222e+00 1.2219556e+00 1.2802211e-01
2.7393800e+00 1.1965200e+00 1.4235700e-01
2.7048522e+00 1.1656956e+00 1.5934578e-01
2.6667389e+00 1.1294822e+00 1.7898844e-01
2.6250400e+00 1.0878800e+00 2.0128500e-01
2.6250400e+00 1.0878800e+00 2.0128500e-01
2.5920933e+00 1.0664923e+00 2.1299367e-01
2.5569067e+00 1.0447857e+00 2.2373667e-01
2.5194800e+00 1.0227600e+00 2.3351400e-01
2.4798133e+00 1.0004153e+00 2.4232567e-01
2.4379067e+00 9.7775167e-01 2.5017167e-01
2.3937600e+00 9.5476900e-01 2.5705200e-01
2.3937600e+00 9.5476900e-01 2.5705200e-01
2.3455222e+00 9.2984233e-01 2.6248556e-01
2.2931389e+00 9.0358733e-01 2.6472389e-01
2.2366100e+00 8.7600400e-01 2.6376700e-01
2.1759356e+00 8.4709233e-01 2.5961489e-01
2.1111156e+00 8.1685233e-01 2.5226756e-01
2.0421500e+00 7.8528400e-01 2.4172500e-01
2.0421500e+00 7.8528400e-01 2.4172500e-01
1.9821344e+00 7.4773722e-01 2.2938100e-01
1.9286611e+00 7.0895156e-01 2.2068400e-01
1.8817300e+00 6.6892700e-01 2.1563400e-01
1.8413411e+00 6.2766356e-01 2.1423100e-01
1.8074944e+00 5.8516122e-01 2.1647500e-01
1.7801900e+00 5.4142000e-01 2.2236600e-01
1.7801900e+00 5.4142000e-01 2.2236600e-01
1.7477789e+00 5.0002256e-01 2.2378311e-01
1.7143356e+00 4.5969556e-01 2.2295711e-01
1.6798600e+00 4.2043900e-01 2.1988800e-01
1.6443522e+00 3.8225289e-01 2.1457578e-01
1.6078122e+00 3.4513722e-01 2.0702044e-01
1.5702400e+00 3.0909200e-01 1.9722200e-01
1.5702400e+00 3.0909200e-01 1.9722200e-01
1.5345311e+00 2.7204423e-01 1.9048289e-01
1.4961678e+00 2.3526457e-01 1.8248722e-01
1.4551500e+00 1.9875300e-01 1.7323500e-01
1.4114778e+00 1.6250953e-01 1.6272622e-01
1.3651511e+00 1.2653417e-01 1.5096089e-01
1.3161700e+00 9.0826900e-02 1.3793900e-01
1.3161700e+00 9.0826900e-02 1.3793900e-01
1.2618621e+00 5.7109588e-02 1.2122266e-01
1.2038488e+00 2.6890661e-02 1.0361822e-01
1.1421300e+00 1.7011900e-04 8.5125700e-02
1.0767058e+00 -2.3052039e-02 6.5745089e-02
1.0075761e+00 -4.2775812e-02 4.5476389e-02
9.3474100e-01 -5.9001200e-02 2.4319600e-02
9.3474100e-01 -5.9001200e-02 2.4319600e-02
8.5696278e-01 -6.8726067e-02 5.2858222e-03
7.8132511e-01 -7.5336200e-02 -1.0123911e-02
7.0782800e-01 -7.8831600e-02 -2.1909600e-02
6.3647144e-01 -7.9212267e-02 -3.0071244e-02
5.6725544e-01 -7.6478200e-02 -3.4608844e-02
5.0018000e-01 -7.0629400e-02 -3.5522400e-02
5.0018000e-01 -7.0629400e-02 -3.5522400e-02
4.4073400e-01 -6.2426011e-02 -3.6467767e-02
3.8538367e-01 -5.3553778e-02 -3.6710267e-02
3.3412900e-01 -4.4012700e-02 -3.6249900e-02
2.8697000e-01 -3.3802778e-02 -3.5086667e-02
2.4390667e-01 -2.2924011e-02 -3.3220567e-02
2.0493900e-01 -1.1376400e-02 -3.0651600e-02
2.0493900e-01 -1.1376400e-02 -3.0651600e-02
1.6881967e-01 -5.9808400e-03 -2.3896000e-02
1.3406767e-01 -1.3847633e-03 -1.6649100e-02
1.0068300e-01 2.4118300e-03 -8.9109000e-03
6.8665667e-02 5.4089400e-03 -6.8140000e-04
3.8015667e-02 7.6065667e-03 8.0394000e-03
8.7330000e-03 9.0047100e-03 1.7251500e-02
2.8187200e+00 1.3097500e+00 -9.5448800e-02
2.8493567e+00 1.3174033e+00 -7.6531001e-02
2.8781300e+00 1.3211467e+00 -5.8401868e-02
2.9050400e+00 1.3209800e+00 -4.1061400e-02
2.9300867e+00 1.3169033e+00 -2.4509598e-02
2.9532700e+00 1.3089167e+00 -8.7464611e-03
2.9745900e+00 1.2970200e+00 6.2280100e-03
2.9745900e+00 1.2970200e+00 6.2280100e-03
2.9913867e+00 1.2718556e+00 1.5010827e-02
3.0063833e+00 1.2444222e+00 1.9691690e-02
3.0195800e+00 1.2147200e+00 2.0270600e-02
3.0309767e+00 1.1827489e+00 1.6747557e-02
3.0405733e+00 1.1485089e+00 9.1225600e-03
3.0483700e+00 1.1120000e+00 -2.6043900e-03
3.0483700e+00 1.1120000e+00 -2.6043900e-03
3.0552189e+00 1.0720031e+00 -1.2660717e-02
3.0606356e+00 1.0379364e+00 -2.1090887e-02
3.0646200e+00 1.0098000e+00 -2.7894900e-02
3.0671722e+00 9.8759378e-01 -3.3072757e-02
3.0682922e+00 9.7131778e-01 -3.6624457e-02
3.0679800e+00 9.6097200e-01 -3.8550000e-02
3.0679800e+00 9.6097200e-01 -3.8550000e-02
3.0708889e+00 9.6678300e-01 -3.4581254e-02
3.0753389e+00 9.7230533e-01 -3.0284588e-02
3.0813300e+00 9.7753900e-01 -2.5660000e-02
3.0888622e+00 9.8248400e-01 -2.0707491e-02
3.0979356e+00 9.8714033e-01 -1.5427061e-02
3.1085500e+00 9.9150800e-01 -9.8187100e-03
2.7675900e+00 1.2866900e+00 9.1534600e-03
2.7804056e+00 1.2884156e+00 3.5080478e-02
2.7916856e+00 1.2874489e+00 5.7180724e-02
2.8014300e+00 1.2837900e+00 7.5454200e-02
2.8096389e+00 1.2774389e+00 8.9900904e-02
2.8163122e+00 1.2683956e+00 1.0052084e-01
2.8214500e+00 1.2566600e+00 1.0731400e-01
3.1689100e+00 4.8810100e-01 -1.1333300e-01
3.1285667e+00 4.3596422e-01 -1.0899840e-01
3.0861933e+00 3.8530856e-01 -1.0252143e-01
3.0417900e+00 3.3613400e-01 -9.3902100e-02
2.9953567e+00 2.8844056e-01 -8.3140400e-02
2.9468933e+00 2.4222822e-01 -7.0236333e-02
2.8964000e+00 1.9749700e-01 -5.5189900e-02
2.8964000e+00 1.9749700e-01 -5.5189900e-02
2.8666611e+00 1.6811348e-01 -4.5863989e-02
2.8346978e+00 1.4202848e-01 -3.4155122e-02
2.8005100e+00 1.1924200e-01 -2.0063300e-02
2.7640978e+00 9.9754044e-02 -3.5885222e-03
2.7254611e+00 8.3564611e-02 1.5269211e-02
2.6846000e+00 7.0673700e-02 3.6509900e-02
2.6846000e+00 7.0673700e-02 3.6509900e-02
2.6373822e+00 5.6606656e-02 5.5962667e-02
2.5895489e+00 4.3935356e-02 7.2893733e-02
2.5411000e+00 3.2659800e-02 8.7303100e-02
2.4920356e+00 2.2779989e-02 9.9190767e-02
2.4423556e+00 1.4295922e-02 1.0855673e-01
2.3920600e+00 7.2076000e-03 1.1540100e-01
2.3920600e+00 7.2076000e-03 1.1540100e-01
2.3339656e+00 1.1019667e-03 1.1753620e-01
2.2758822e+00 -4.0291533e-03 1.1690453e-01
2.2178100e+00 -8.1857600e-03 1.1350600e-01
2.1597489e+00 -1.1367853e-02 1.0734060e-01
2.1016989e+00 -1.3575433e-02 9.8408333e-02
2.0436600e+00 -1.4808500e-02 8.6709200e-02
2.0436600e+00 -1.4808500e-02 8.6709200e-02
1.9935344e+00 -1.2583533e-02 7.7707100e-02
1.9447744e+00 -9.3228200e-03 6.8399833e-02
1.8973800e+00 -5.0263600e-03 5.8787400e-02
1.8513511e+00 3.0584667e-04 4.8869800e-02
1.8066878e+00 6.6738000e-03 3.8647033e-02
1.7633900e+00 1.4077500e-02 2.8119100e-02
1.7633900e+00 1.4077500e-02 2.8119100e-02
1.7197489e+00 1.9946833e-02 1.5818850e-02
1.6758789e+00 2.6390367e-02 3.4573733e-03
1.6317800e+00 3.3408100e-02 -8.9653300e-03
1.5874522e+00 4.1000033e-02 -2.1449260e-02
1.5428956e+00 4.9166167e-02 -3.3994417e-02
1.4981100e+00 5.7906500e-02 -4.6600800e-02
1.4981100e+00 5.7906500e-02 -4.6600800e-02
1.4559389e+00 6.5083000e-02 -5.8247489e-02
1.4114122e+00 7.3668933e-02 -6.8669622e-02
1.3645300e+00 8.3664300e-02 -7.7867200e-02
1.3152922e+00 9.5069100e-02 -8.5840222e-02
1.2636989e+00 1.0788333e-01 -9.2588689e-02
1.2097500e+00 1.2210700e-01 -9.8112600e-02
1.2097500e+00 1.2210700e-01 -9.8112600e-02
1.1497943e+00 1.3986556e-01 -1.0200033e-01
1.0896877e+00 1.5466389e-01 -1.0470780e-01
1.0294300e+00 1.6650200e-01 -1.0623500e-01
9.6902133e-01 1.7537989e-01 -1.0658193e-01
9.0846167e-01 1.8129756e-01 -1.0574860e-01
8.4775100e-01 1.8425500e-01 -1.0373500e-01
8.4775100e-01 1.8425500e-01 -1.0373500e-01
7.8161333e-01 1.8417500e-01 -1.0088237e-01
7.1812633e-01 1.8190533e-01 -9.5692967e-02
6.5729000e-01 1.7744600e-01 -8.8166800e-02
5.9910433e-01 1.7079700e-01 -7.8303867e-02
5.4356933e-01 1.6195833e-01 -6.6104167e-02
4.9068500e-01 1.5093000e-01 -5.1567700e-02
4.9068500e-01 1.5093000e-01 -5.1567700e-02
4.3315111e-01 1.4175528e-01 -2.5682211e-02
3.7813911e-01 1.3108461e-01 -1.7200778e-03
3.2564900e-01 1.1891800e-01 2.0318700e-02
2.7568078e-01 1.0525544e-01 4.0434122e-02
2.2823444e-01 9.0096944e-02 5.8626189e-02
1.8331000e-01 7.3442500e-02 7.4894900e-02
1.8331000e-01 7.3442500e-02 7.4894900e-02
1.6057123e-01 6.2240178e-02 6.4078232e-02
1.3616690e-01 4.9117011e-02 5.2520199e-02
1.1009700e-01 3.4073000e-02 4.0220800e-02
8.2361533e-02 1.7108144e-02 2.7180036e-02
5.2960500e-02 -1.7775556e-03 1.3397906e-02
2.1893900e-02 -2.2584100e-02 -1.1255900e-03
9.6471200e+00 5.9805800e-01 1.4253100e-01
9.6245489e+00 5.4542733e-01 1.5768411e-01
9.6008456e+00 4.9498633e-01 1.7245178e-01
9.5760100e+00 4.4673500e-01 1.8683400e-01
9.5500422e+00 4.0067333e-01 2.0083078e-01
9.5229422e+00 3.5680133e-01 2.1444211e-01
9.4947100e+00 3.1511900e-01 2.2766800e-01
9.4947100e+00 3.1511900e-01 2.2766800e-01
9.4688033e+00 2.8513844e-01 2.3832689e-01
9.4415600e+00 2.6285911e-01 2.4782322e-01
9.4129800e+00 2.4828100e-01 2.5615700e-01
9.3830633e+00 2.4140411e-01 2.6332822e-01
9.3518100e+00 2.4222844e-01 2.6933689e-01
9.3192200e+00 2.5075400e-01 2.7418300e-01
9.3192200e+00 2.5075400e-01 2.7418300e-01
9.2886956e+00 2.5746900e-01 2.7657922e-01
9.2560989e+00 2.6542233e-01 2.7902789e-01
9.2214300e+00 2.7461400e-01 2.8152900e-01
9.1846889e+00 2.8504400e-01 2.8408256e-01
9.1458756e+00 2.9671233e-01 2.8668856e-01
9.1049900e+00 3.0961900e-01 2.8934700e-01
9.1049900e+00 3.0961900e-01 2.8934700e-01
9.0498522e+00 3.2699433e-01 2.9649133e-01
8.9968122e+00 3.3584467e-01 3.0338633e-01
8.9458700e+00 3.3617000e-01 3.1003200e-01
8.8970256e+00 3.2797033e-01 3.1642833e-01
8.8502789e+00 3.1124567e-01 3.2257533e-01
8.8056300e+00 2.8599600e-01 3.2847300e-01
8.8056300e+00 2.8599600e-01 3.2847300e-01
8.7693656e+00 2.5585620e-01 3.2577267e-01
8.7349756e+00 2.2528120e-01 3.2012100e-01
8.7024600e+00 1.9427100e-01 3.1151800e-01
8.6718189e+00 1.6282560e-01 2.9996367e-01
8.6430522e+00 1.3094500e-01 2.8545800e-01
8.6161600e+00 9.8629200e-02 2.6800100e-01
8.6161600e+00 9.8629200e-02 2.6800100e-01
8.5829600e+00 1.3274556e-01 2.7140411e-01
8.5462667e+00 1.6508582e-01 2.7328478e-01
8.5060800e+00 1.9565000e-01 2.7364300e-01
8.4624000e+00 2.2443809e-01 2.7247878e-01
8.4152267e+00 2.5145009e-01 2.6979211e-01
8.3645600e+00 2.7668600e-01 2.6558300e-01
8.3645600e+00 2.7668600e-01 2.6558300e-01
8.3137756e+00 2.9467678e-01 2.5300156e-01
8.2651022e+00 3.0574178e-01 2.3789856e-01
8.2185400e+00 3.0988100e-01 2.2027400e-01
8.1740889e+00 3.0709444e-01 2.0012789e-01
8.1317489e+00 2.9738211e-01 1.7746022e-01
8.0915200e+00 2.8074400e-01 1.5227100e-01
8.0915200e+00 2.8074400e-01 1.5227100e-01
8.0537100e+00 2.5499167e-01 1.3417838e-01
8.0132600e+00 2.2900867e-01 1.1518491e-01
7.9701700e+00 2.0279500e-01 9.5290600e-02
7.9244400e+00 1.7635067e-01 7.4495444e-02
7.8760700e+00 1.4967567e-01 5.2799444e-02
7.8250600e+00 1.2277000e-01 3.0202600e-02
7.8250600e+00 1.2277000e-01 3.0202600e-02
7.7646978e+00 9.9907556e-02 3.3314000e-03
7.7015344e+00 8.4739956e-02 -2.0472767e-02
7.6355700e+00 7.7267200e-02 -4.1209900e-02
7.5668044e+00 7.7489289e-02 -5.8880000e-02
7.4952378e+00 8.5406222e-02 -7.3483067e-02
7.4208700e+00 1.0101800e-01 -8.5019100e-02
7.4208700e+00 1.0101800e-01 -8.5019100e-02
7.3506989e+00 1.2873322e-01 -8.7686111e-02
7.2866289e+00 1.5591222e-01 -8.9636011e-02
7.2286600e+00 1.8255500e-01 -9.0868800e-02
7.1767922e+00 2.0866156e-01 -9.1384478e-02
7.1310256e+00 2.3423189e-01 -9.1183044e-02
7.0913600e+00 2.5926600e-01 -9.0264500e-02
7.2410300e+00 3.2481800e-01 -1.3709800e-01
7.2246100e+00 3.0760822e-01 -1.3188339e-01
7.2047800e+00 2.9291222e-01 -1.2563239e-01
7.1815400e+00 2.8073000e-01 -1.1834500e-01
7.1548900e+00 2.7106156e-01 -1.1002122e-01
7.1248300e+00 2.6390689e-01 -1.0066106e-01
7.0913600e+00 2.5926600e-01 -9.0264500e-02
9.1881600e+00 6.4595900e-01 1.6629300e-01
9.1575656e+00 6.2583333e-01 1.4757864e-01
9.1260489e+00 6.0500900e-01 1.2729164e-01
9.0936100e+00 5.8348600e-01 1.0543200e-01
9.0602489e+00 5.6126433e-01 8.1999711e-02
9.0259656e+00 5.3834400e-01 5.6994778e-02
8.9907600e+00 5.1472500e-01 3.0417200e-02
8.9907600e+00 5.1472500e-01 3.0417200e-02
8.9546656e+00 4.8341856e-01 2.3727556e-03
8.9194889e+00 4.5361656e-01 -1.8477678e-02
8.8852300e+00 4.2531900e-01 -3.2134100e-02
8.8518889e+00 3.9852589e-01 -3.8596511e-02
8.8194656e+00 3.7323722e-01 -3.7864911e-02
8.7879600e+00 3.4945300e-01 -2.9939300e-02
8.7879600e+00 3.4945300e-01 -2.9939300e-02
8.7441622e+00 3.4487211e-01 2.4421667e-03
8.6980189e+00 3.4302544e-01 3.4236133e-02
8.6495300e+00 3.4391300e-01 6.5442600e-02
8.5986956e+00 3.4753478e-01 9.6061567e-02
8.5455156e+00 3.5389078e-01 1.2609303e-01
8.4899900e+00 3.6298100e-01 1.5553700e-01
8.4899900e+00 3.6298100e-01 1.5553700e-01
8.4362556e+00 3.7145022e-01 1.8344856e-01
8.3797222e+00 3.7686489e-01 2.0990889e-01
8.3203900e+00 3.7922500e-01 2.3491800e-01
8.2582589e+00 3.7853056e-01 2.5847589e-01
8.1933289e+00 3.7478156e-01 2.8058256e-01
8.1256000e+00 3.6797800e-01 3.0123800e-01
8.1256000e+00 3.6797800e-01 3.0123800e-01
8.0493189e+00 3.4073556e-01 2.8236861e-01
7.9695456e+00 3.2095222e-01 2.5338528e-01
7.8862800e+00 3.0862800e-01 2.1428800e-01
7.7995222e+00 3.0376289e-01 1.6507678e-01
7.7092722e+00 3.0635689e-01 1.0575161e-01
7.6155300e+00 3.1641000e-01 3.6312500e-02
7.6155300e+00 3.1641000e-01 3.6312500e-02
7.5335522e+00 3.2667633e-01 -1.4171444e-02
7.4593989e+00 3.3339667e-01 -5.6022511e-02
7.3930700e+00 3.3657100e-01 -8.9240700e-02
7.3345656e+00 3.3619933e-01 -1.1382601e-01
7.2838856e+00 3.3228167e-01 -1.2977844e-01
7.2410300e+00 3.2481800e-01 -1.3709800e-01
5.3737000e+00 6.2757300e-01 -1.2662100e-01
5.4187578e+00 5.8741711e-01 -1.1540911e-01
5.4718878e+00 5.4805978e-01 -1.0767678e-01
5.5330900e+00 5.0950100e-01 -1.0342400e-01
5.6023644e+00 4.7174078e-01 -1.0265078e-01
5.6797111e+00 4.3477911e-01 -1.0535711e-01
5.7651300e+00 3.9861600e-01 -1.1154300e-01
5.7651300e+00 3.9861600e-01 -1.1154300e-01
5.8604467e+00 3.8647478e-01 -1.1135257e-01
5.9575667e+00 3.8310078e-01 -1.0921923e-01
6.0564900e+00 3.8849400e-01 -1.0514300e-01
6.1572167e+00 4.0265444e-01 -9.9123867e-02
6.2597467e+00 4.2558211e-01 -9.1161833e-02
6.3640800e+00 4.5727700e-01 -8.1256900e-02
6.3640800e+00 4.5727700e-01 -8.1256900e-02
6.4595989e+00 4.9119933e-01 -7.8353344e-02
6.5533289e+00 5.1675833e-01 -7.7096944e-02
6.6452700e+00 5.3395400e-01 -7.7487700e-02
6.7354222e+00 5.4278633e-01 -7.9525611e-02
6.8237856e+00 5.4325533e-01 -8.3210678e-02
6.9103600e+00 5.3536100e-01 -8.8542900e-02
6.9103600e+00 5.3536100e-01 -8.8542900e-02
6.9846078e+00 5.0387800e-01 -9.7364611e-02
7.0512011e+00 4.7095200e-01 -1.0589464e-01
7.1101400e+00 4.3658300e-01 -1.1413300e-01
7.1614244e+00 4.0077100e-01 -1.2207968e-01
7.2050544e+00 3.6351600e-01 -1.2973468e-01
7.2410300e+00 3.2481800e-01 -1.3709800e-01