# vtk DataFile Version 2.0
test
ASCII
DATASET POLYDATA
POINTS 4361 float
6.6640222e+00 7.5322185e+00 1.1856517e+01
6.7835689e+00 7.5783569e+00 1.1735984e+01
6.9040632e+00 7.6225404e+00 1.1615702e+01
7.0255050e+00 7.6647691e+00 1.1495669e+01
7.1478944e+00 7.7050428e+00 1.1375887e+01
7.2712313e+00 7.7433615e+00 1.1256355e+01
7.3955158e+00 7.7797254e+00 1.1137073e+01
7.3955158e+00 7.7797254e+00 1.1137073e+01
7.5223234e+00 7.8277336e+00 1.1021541e+01
7.6544736e+00 7.8736803e+00 1.0912556e+01
7.7919665e+00 7.9175655e+00 1.0810116e+01
7.9348019e+00 7.9593892e+00 1.0714223e+01
8.0829800e+00 7.9991514e+00 1.0624875e+01
8.2365006e+00 8.0368521e+00 1.0542073e+01
8.2365006e+00 8.0368521e+00 1.0542073e+01
8.4046936e+00 8.0654526e+00 1.0484596e+01
8.5746674e+00 8.0927416e+00 1.0444730e+01
8.7464220e+00 8.1187190e+00 1.0422476e+01
8.9199575e+00 8.1433850e+00 1.0417833e+01
9.0952739e+00 8.1667394e+00 1.0430801e+01
9.2723711e+00 8.1887824e+00 1.0461381e+01
9.2723711e+00 8.1887824e+00 1.0461381e+01
9.4471234e+00 8.2069870e+00 1.0488624e+01
9.6215111e+00 8.2236793e+00 1.0518850e+01
9.7955342e+00 8.2388592e+00 1.0552059e+01
9.9691926e+00 8.2525268e+00 1.0588252e+01
1.0142486e+01 8.2646821e+00 1.0627427e+01
1.0315416e+01 8.2753251e+00 1.0669586e+01
1.0315416e+01 8.2753251e+00 1.0669586e+01
1.0487873e+01 8.2840925e+00 1.0714722e+01
1.0661334e+01 8.2913385e+00 1.0754930e+01
1.0835798e+01 8.2970631e+00 1.0790210e+01
1.1011266e+01 8.3012661e+00 1.0820562e+01
1.1187736e+01 8.3039478e+00 1.0845986e+01
1.1365210e+01 8.3051079e+00 1.0866482e+01
1.1365210e+01 8.3051079e+00 1.0866482e+01
1.1545197e+01 8.3035371e+00 1.0878755e+01
1.1723067e+01 8.3004044e+00 1.0876133e+01
1.1898819e+01 8.2957097e+00 1.0858618e+01
1.2072455e+01 8.2894531e+00 1.0826208e+01
1.2243973e+01 8.2816346e+00 1.0778904e+01
1.2413375e+01 8.2722542e+00 1.0716707e+01
1.2413375e+01 8.2722542e+00 1.0716707e+01
1.2574742e+01 8.2615671e+00 1.0635943e+01
1.2727636e+01 8.2537833e+00 1.0544159e+01
1.2872057e+01 8.2489027e+00 1.0441356e+01
1.3008004e+01 8.2469254e+00 1.0327534e+01
1.3135478e+01 8.2478514e+00 1.0202693e+01
1.3254478e+01 8.2516806e+00 1.0066832e+01
1.3254478e+01 8.2516806e+00 1.0066832e+01
1.3359038e+01 8.2849022e+00 9.9248139e+00
1.3463207e+01 8.3136536e+00 9.7815293e+00
1.3566984e+01 8.3379348e+00 9.6369780e+00
1.3670369e+01 8.3577458e+00 9.4911601e+00
1.3773363e+01 8.3730867e+00 9.3440754e+00
1.3875966e+01 8.3839574e+00 9.1957241e+00
1.3875966e+01 8.3839574e+00 9.1957241e+00
1.3763093e+01 8.3055383e+00 9.0664645e+00
1.3649797e+01 8.2226984e+00 8.9413430e+00
1.3536078e+01 8.1354378e+00 8.8203597e+00
1.3421936e+01 8.0437565e+00 8.7035146e+00
1.3307371e+01 7.9476544e+00 8.5908077e+00
1.3192383e+01 7.8471316e+00 8.4822388e+00
1.3192383e+01 7.8471316e+00 8.4822388e+00
1.3076125e+01 7.7699179e+00 8.3574877e+00
1.2963124e+01 7.6908070e+00 8.2313877e+00
1.2853379e+01 7.6097987e+00 8.1039388e+00
1.2746890e+01 7.5268931e+00 7.9751410e+00
1.2643657e+01 7.4420902e+00 7.8449943e+00
1.2543680e+01 7.3553900e+00 7.7134988e+00
1.2543680e+01 7.3553900e+00 7.7134988e+00
1.2448215e+01 7.2739757e+00 7.5746512e+00
1.2359711e+01 7.1901442e+00 7.4336997e+00
1.2278169e+01 7.1038955e+00 7.2906443e+00
1.2203587e+01 7.0152295e+00 7.1454850e+00
1.2135966e+01 6.9241464e+00 6.9982217e+00
1.2075307e+01 6.8306461e+00 6.8488546e+00
1.2075307e+01 6.8306461e+00 6.8488546e+00
1.2030118e+01 6.7345451e+00 6.6973130e+00
1.1992366e+01 6.6368902e+00 6.5452995e+00
1.1962049e+01 6.5376815e+00 6.3928141e+00
1.1939168e+01 6.4369189e+00 6.2398569e+00
1.1923722e+01 6.3346024e+00 6.0864277e+00
1.1915713e+01 6.2307320e+00 5.9325267e+00
1.1915713e+01 6.2307320e+00 5.9325267e+00
1.1916733e+01 6.1251514e+00 5.7800369e+00
1.1924559e+01 6.0175269e+00 5.6301027e+00
1.1939191e+01 5.9078585e+00 5.4827242e+00
1.1960630e+01 5.7961460e+00 5.3379014e+00
1.1988875e+01 5.6823896e+00 5.1956341e+00
1.2023926e+01 5.5665892e+00 5.0559226e+00
1.2023926e+01 5.5665892e+00 5.0559226e+00
1.2060601e+01 5.4493433e+00 4.9185370e+00
1.2098901e+01 5.3315238e+00 4.7821357e+00
1.2138827e+01 5.2131306e+00 4.6467186e+00
1.2180377e+01 5.0941637e+00 4.5122858e+00
1.2223552e+01 4.9746231e+00 4.3788373e+00
1.2268353e+01 4.8545089e+00 4.2463730e+00
1.2268353e+01 4.8545089e+00 4.2463730e+00
1.2311902e+01 4.7335495e+00 4.1146879e+00
1.2351876e+01 4.6097660e+00 3.9843202e+00
1.2388274e+01 4.4831585e+00 3.8552700e+00
1.2421098e+01 4.3537269e+00 3.7275373e+00
1.2450347e+01 4.2214712e+00 3.6011221e+00
1.2476020e+01 4.0863914e+00 3.4760243e+00
1.2476020e+01 4.0863914e+00 3.4760243e+00
1.2497606e+01 3.9485670e+00 3.3528922e+00
1.2512721e+01 3.8101701e+00 3.2301154e+00
1.2521365e+01 3.6712004e+00 3.1076941e+00
1.2523538e+01 3.5316581e+00 2.9856280e+00
1.2519240e+01 3.3915432e+00 2.8639174e+00
1.2508471e+01 3.2508555e+00 2.7425621e+00
1.2508471e+01 3.2508555e+00 2.7425621e+00
1.2489402e+01 3.1083196e+00 2.6232637e+00
1.2462593e+01 2.9658040e+00 2.5062283e+00
1.2428044e+01 2.8233088e+00 2.3914558e+00
1.2385754e+01 2.6808339e+00 2.2789462e+00
1.2335725e+01 2.5383794e+00 2.1686996e+00
1.2277955e+01 2.3959453e+00 2.0607159e+00
1.2277955e+01 2.3959453e+00 2.0607159e+00
1.2213644e+01 2.2575443e+00 1.9516947e+00
1.2144100e+01 2.1201907e+00 1.8448624e+00
1.2069324e+01 1.9838847e+00 1.7402192e+00
1.1989315e+01 1.8486261e+00 1.6377649e+00
1.1904075e+01 1.7144151e+00 1.5374996e+00
1.1813602e+01 1.5812515e+00 1.4394233e+00
1.1813602e+01 1.5812515e+00 1.4394233e+00
1.1713487e+01 1.4505208e+00 1.3464854e+00
1.1610890e+01 1.3206418e+00 1.2554866e+00
1.1505810e+01 1.1916146e+00 1.1664269e+00
1.1398248e+01 1.0634392e+00 1.0793063e+00
1.1288202e+01 9.3611558e-01 9.9412488e-01
1.1175674e+01 8.0964374e-01 9.1088257e-01
1.1175674e+01 8.0964374e-01 9.1088257e-01
1.1064637e+01 6.7951862e-01 8.2744136e-01
1.0953303e+01 5.4982238e-01 7.4463670e-01
1.0841672e+01 4.2055500e-01 6.6246859e-01
1.0729745e+01 2.9171650e-01 5.8093702e-01
1.0617521e+01 1.6330686e-01 5.0004200e-01
1.0505000e+01 3.5326100e-02 4.1978353e-01
4.2793600e+00 6.5572721e+00 1.1748681e+01
4.2311364e+00 6.5050420e+00 1.1571089e+01
4.1814064e+00 6.4464478e+00 1.1396403e+01
4.1301698e+00 6.3814895e+00 1.1224625e+01
4.0774268e+00 6.3101672e+00 1.1055753e+01
4.0231772e+00 6.2324808e+00 1.0889788e+01
3.9674212e+00 6.1484303e+00 1.0726730e+01
3.9674212e+00 6.1484303e+00 1.0726730e+01
3.9254940e+00 6.0846353e+00 1.0551256e+01
3.8891318e+00 6.0186796e+00 1.0375830e+01
3.8583346e+00 5.9505631e+00 1.0200452e+01
3.8331023e+00 5.8802858e+00 1.0025122e+01
3.8134350e+00 5.8078477e+00 9.8498399e+00
3.7993326e+00 5.7332489e+00 9.6746062e+00
3.7993326e+00 5.7332489e+00 9.6746062e+00
3.7931278e+00 5.6543731e+00 9.5001162e+00
3.7940862e+00 5.5720134e+00 9.3282755e+00
3.8022076e+00 5.4861700e+00 9.1590840e+00
3.8174921e+00 5.3968426e+00 8.9925416e+00
3.8399396e+00 5.3040315e+00 8.8286485e+00
3.8695502e+00 5.2077365e+00 8.6674045e+00
3.8695502e+00 5.2077365e+00 8.6674045e+00
3.9197873e+00 5.1031966e+00 8.5142205e+00
3.9830011e+00 4.9958835e+00 8.3718988e+00
4.0591916e+00 4.8857973e+00 8.2404392e+00
4.1483588e+00 4.7729379e+00 8.1198417e+00
4.2505027e+00 4.6573054e+00 8.0101065e+00
4.3656233e+00 4.5388997e+00 7.9112334e+00
4.3656233e+00 4.5388997e+00 7.9112334e+00
4.4777832e+00 4.4219913e+00 7.8132503e+00
4.5898359e+00 4.3045699e+00 7.7159306e+00
4.7017812e+00 4.1866354e+00 7.6192745e+00
4.8136193e+00 4.0681878e+00 7.5232818e+00
4.9253500e+00 3.9492272e+00 7.4279527e+00
5.0369735e+00 3.8297536e+00 7.3332870e+00
5.0369735e+00 3.8297536e+00 7.3332870e+00
5.1495603e+00 3.7070181e+00 7.2423860e+00
5.2569869e+00 3.5816834e+00 7.1494919e+00
5.3592532e+00 3.4537497e+00 7.0546046e+00
5.4563594e+00 3.3232168e+00 6.9577241e+00
5.5483053e+00 3.1900848e+00 6.8588504e+00
5.6350909e+00 3.0543536e+00 6.7579836e+00
5.6350909e+00 3.0543536e+00 6.7579836e+00
5.7126135e+00 2.9168371e+00 6.6507952e+00
5.7789457e+00 2.7792520e+00 6.5384342e+00
5.8340878e+00 2.6415983e+00 6.4209007e+00
5.8780395e+00 2.5038759e+00 6.2981946e+00
5.9108010e+00 2.3660849e+00 6.1703161e+00
5.9323722e+00 2.2282253e+00 6.0372650e+00
5.9323722e+00 2.2282253e+00 6.0372650e+00
5.9372213e+00 2.0930066e+00 5.8998378e+00
5.9320755e+00 1.9594162e+00 5.7622213e+00
5.9169348e+00 1.8274541e+00 5.6244154e+00
5.8917993e+00 1.6971203e+00 5.4864201e+00
5.8566689e+00 1.5684148e+00 5.3482354e+00
5.8115436e+00 1.4413376e+00 5.2098615e+00
5.8115436e+00 1.4413376e+00 5.2098615e+00
5.7613038e+00 1.3177108e+00 5.0698487e+00
5.7073016e+00 1.1959508e+00 4.9298085e+00
5.6495370e+00 1.0760576e+00 4.7897408e+00
5.5880101e+00 9.5803127e-01 4.6496457e+00
5.5227209e+00 8.4187176e-01 4.5095232e+00
5.4536694e+00 7.2757906e-01 4.3693732e+00
5.4536694e+00 7.2757906e-01 4.3693732e+00
5.3829906e+00 6.0847760e-01 4.2339190e+00
5.3114096e+00 4.8919490e-01 4.0990594e+00
5.2389264e+00 3.6973097e-01 3.9647947e+00
5.1655410e+00 2.5008581e-01 3.8311246e+00
5.0912533e+00 1.3025942e-01 3.6980493e+00
5.0160635e+00 1.0251800e-02 3.5655688e+00
3.0594600e+00 6.3683344e+00 1.3810847e+01
3.1427019e+00 6.4796941e+00 1.3671917e+01
3.2373023e+00 6.5883504e+00 1.3542273e+01
3.3432611e+00 6.6943032e+00 1.3421915e+01
3.4605783e+00 6.7975526e+00 1.3310842e+01
3.5892541e+00 6.8980985e+00 1.3209055e+01
3.7292882e+00 6.9959409e+00 1.3116554e+01
3.7292882e+00 6.9959409e+00 1.3116554e+01
3.8986497e+00 7.0738371e+00 1.3061919e+01
4.0731669e+00 7.1406526e+00 1.3019007e+01
4.2528400e+00 7.1963874e+00 1.2987818e+01
4.4376688e+00 7.2410414e+00 1.2968351e+01
4.6276535e+00 7.2746148e+00 1.2960607e+01
4.8227940e+00 7.2971074e+00 1.2964586e+01
4.8227940e+00 7.2971074e+00 1.2964586e+01
5.0184668e+00 7.3111284e+00 1.2969409e+01
5.2100938e+00 7.3265716e+00 1.2957188e+01
5.3976748e+00 7.3434369e+00 1.2927925e+01
5.5812099e+00 7.3617244e+00 1.2881619e+01
5.7606991e+00 7.3814340e+00 1.2818270e+01
5.9361425e+00 7.4025658e+00 1.2737879e+01
5.9361425e+00 7.4025658e+00 1.2737879e+01
6.0856304e+00 7.4326589e+00 1.2616520e+01
6.2238485e+00 7.4593583e+00 1.2484948e+01
6.3507967e+00 7.4826639e+00 1.2343161e+01
6.4664751e+00 7.5025758e+00 1.2191160e+01
[...]
POINT_DATA 4361
VECTORS U float
3.3671200e+00 1.0693700e+00 -1.0740700e-02
3.3908311e+00 1.0440123e+00 2.4206222e-03
3.4128544e+00 1.0163770e+00 1.3512789e-02
3.4331900e+00 9.8646400e-01 2.2535800e-02
3.4518378e+00 9.5427333e-01 2.9489656e-02
3.4687978e+00 9.1980500e-01 3.4374356e-02
3.4840700e+00 8.8305900e-01 3.7189900e-02
3.4840700e+00 8.8305900e-01 3.7189900e-02
3.4956878e+00 8.5675944e-01 3.9533577e-02
3.5054578e+00 8.2886611e-01 3.8297777e-02
3.5133800e+00 7.9937900e-01 3.3482500e-02
3.5194544e+00 7.6829811e-01 2.5087747e-02
3.5236811e+00 7.3562344e-01 1.3113517e-02
3.5260600e+00 7.0135500e-01 -2.4401900e-03
3.5260600e+00 7.0135500e-01 -2.4401900e-03
3.5346122e+00 6.6068689e-01 -1.1215517e-02
3.5421989e+00 6.2257022e-01 -1.5152320e-02
3.5488200e+00 5.8700500e-01 -1.4250600e-02
3.5544756e+00 5.5399122e-01 -8.5103567e-03
3.5591656e+00 5.2352889e-01 2.0684100e-03
3.5628900e+00 4.9561800e-01 1.7485700e-02
3.5628900e+00 4.9561800e-01 1.7485700e-02
3.5656933e+00 4.6847533e-01 2.1300578e-02
3.5680767e+00 4.4321233e-01 2.4422944e-02
3.5700400e+00 4.1982900e-01 2.6852800e-02
3.5715833e+00 3.9832533e-01 2.8590144e-02
3.5727067e+00 3.7870133e-01 2.9634978e-02
3.5734100e+00 3.6095700e-01 2.9987300e-02
3.5734100e+00 3.6095700e-01 2.9987300e-02
3.5731911e+00 3.4396011e-01 3.3478033e-02
3.5729744e+00 3.2819811e-01 3.6092733e-02
3.5727600e+00 3.1367100e-01 3.7831400e-02
3.5725478e+00 3.0037878e-01 3.8694033e-02
3.5723378e+00 2.8832144e-01 3.8680633e-02
3.5721300e+00 2.7749900e-01 3.7791200e-02
3.5721300e+00 2.7749900e-01 3.7791200e-02
3.5717289e+00 2.6680244e-01 3.7401006e-02
3.5707756e+00 2.5755778e-01 3.5310706e-02
3.5692700e+00 2.4976500e-01 3.1520300e-02
3.5672122e+00 2.4342411e-01 2.6029789e-02
3.5646022e+00 2.3853511e-01 1.8839172e-02
3.5614400e+00 2.3509800e-01 9.9484500e-03
3.5614400e+00 2.3509800e-01 9.9484500e-03
3.5577367e+00 2.3350944e-01 1.3958500e-03
3.5523900e+00 2.3645311e-01 -7.9222333e-03
3.5454000e+00 2.4392900e-01 -1.8005800e-02
3.5367667e+00 2.5593711e-01 -2.8854850e-02
3.5264900e+00 2.7247744e-01 -4.0469383e-02
3.5145700e+00 2.9355000e-01 -5.2849400e-02
3.5145700e+00 2.9355000e-01 -5.2849400e-02
3.4945189e+00 3.4444822e-01 -6.7211167e-02
3.4767156e+00 3.9117589e-01 -8.0521733e-02
3.4611600e+00 4.3373300e-01 -9.2781100e-02
3.4478522e+00 4.7211956e-01 -1.0398927e-01
3.4367922e+00 5.0633556e-01 -1.1414623e-01
3.4279800e+00 5.3638100e-01 -1.2325200e-01
3.4279800e+00 5.3638100e-01 -1.2325200e-01
3.4099689e+00 5.2160978e-01 -1.0827173e-01
3.3901922e+00 5.0293244e-01 -8.8544133e-02
3.3686500e+00 4.8034900e-01 -6.4069200e-02
3.3453422e+00 4.5385944e-01 -3.4846933e-02
3.3202689e+00 4.2346378e-01 -8.7733333e-04
3.2934300e+00 3.8916200e-01 3.7839600e-02
3.2934300e+00 3.8916200e-01 3.7839600e-02
3.2628056e+00 3.7922033e-01 6.1710444e-02
3.2306689e+00 3.6894000e-01 8.5791244e-02
3.1970200e+00 3.5832100e-01 1.1008200e-01
3.1618589e+00 3.4736333e-01 1.3458271e-01
3.1251856e+00 3.3606700e-01 1.5929338e-01
3.0870000e+00 3.2443200e-01 1.8421400e-01
3.0870000e+00 3.2443200e-01 1.8421400e-01
3.0462522e+00 3.2036844e-01 2.0406389e-01
3.0031656e+00 3.1592778e-01 2.2255856e-01
2.9577400e+00 3.1111000e-01 2.3969800e-01
2.9099756e+00 3.0591511e-01 2.5548222e-01
2.8598722e+00 3.0034311e-01 2.6991122e-01
2.8074300e+00 2.9439400e-01 2.8298500e-01
2.8074300e+00 2.9439400e-01 2.8298500e-01
2.7580833e+00 2.8775467e-01 2.9314478e-01
2.7062933e+00 2.8053900e-01 3.0044578e-01
2.6520600e+00 2.7274700e-01 3.0488800e-01
2.5953833e+00 2.6437867e-01 3.0647144e-01
2.5362633e+00 2.5543400e-01 3.0519611e-01
2.4747000e+00 2.4591300e-01 3.0106200e-01
2.4747000e+00 2.4591300e-01 3.0106200e-01
2.4140222e+00 2.3478444e-01 2.9426178e-01
2.3547789e+00 2.2200511e-01 2.8683978e-01
2.2969700e+00 2.0757500e-01 2.7879600e-01
2.2405956e+00 1.9149411e-01 2.7013044e-01
2.1856556e+00 1.7376244e-01 2.6084311e-01
2.1321500e+00 1.5438000e-01 2.5093400e-01
2.1321500e+00 1.5438000e-01 2.5093400e-01
2.0774022e+00 1.3397458e-01 2.4054056e-01
2.0227656e+00 1.1400381e-01 2.2913556e-01
1.9682400e+00 9.4467700e-02 2.1671900e-01
1.9138256e+00 7.5366244e-02 2.0329089e-01
1.8595222e+00 5.6699444e-02 1.8885122e-01
1.8053300e+00 3.8467300e-02 1.7340000e-01
1.8053300e+00 3.8467300e-02 1.7340000e-01
1.7498900e+00 2.0836544e-02 1.5745564e-01
1.6923967e+00 2.4856111e-03 1.4208731e-01
1.6328500e+00 -1.6585500e-02 1.2729500e-01
1.5712500e+00 -3.6376789e-02 1.1307871e-01
1.5075967e+00 -5.6888256e-02 9.9438444e-02
1.4418900e+00 -7.8119900e-02 8.6374200e-02
1.4418900e+00 -7.8119900e-02 8.6374200e-02
1.3749700e+00 -9.9262944e-02 7.5222544e-02
1.3069600e+00 -1.1779231e-01 6.4455411e-02
1.2378600e+00 -1.3370800e-01 5.4072800e-02
1.1676700e+00 -1.4701001e-01 4.4074711e-02
1.0963900e+00 -1.5769834e-01 3.4461144e-02
1.0240200e+00 -1.6577300e-01 2.5232100e-02
1.0240200e+00 -1.6577300e-01 2.5232100e-02
9.5150356e-01 -1.7166211e-01 1.8499202e-02
8.8113489e-01 -1.7506678e-01 1.3389156e-02
8.1291400e-01 -1.7598700e-01 9.9019600e-03
7.4684089e-01 -1.7442278e-01 8.0376156e-03
6.8291556e-01 -1.7037411e-01 7.7961222e-03
6.2113800e-01 -1.6384100e-01 9.1774800e-03
6.2113800e-01 -1.6384100e-01 9.1774800e-03
5.6520067e-01 -1.5233264e-01 7.7519256e-03
5.1333500e-01 -1.4028531e-01 6.4196189e-03
4.6554100e-01 -1.2769900e-01 5.1805600e-03
4.2181867e-01 -1.1457371e-01 4.0347489e-03
3.8216800e-01 -1.0090944e-01 2.9821856e-03
3.4658900e-01 -8.6706200e-02 2.0228700e-03
3.4658900e-01 -8.6706200e-02 2.0228700e-03
3.0844278e-01 -7.2061074e-02 3.6615111e-03
2.7258278e-01 -5.7924808e-02 5.5062844e-03
2.3900900e-01 -4.4297400e-02 7.5571900e-03
2.0772144e-01 -3.1178851e-02 9.8142278e-03
1.7872011e-01 -1.8569161e-02 1.2277398e-02
1.5200500e-01 -6.4683300e-03 1.4946700e-02
1.5200500e-01 -6.4683300e-03 1.4946700e-02
1.2929628e-01 7.8097222e-04 1.6210422e-02
1.0763331e-01 7.9168489e-03 1.7525856e-02
8.7016100e-02 1.4939300e-02 1.8893000e-02
6.7444644e-02 2.1848326e-02 2.0311856e-02
4.8918944e-02 2.8643926e-02 2.1782422e-02
3.1439000e-02 3.5326100e-02 2.3304700e-02
3.0612400e+00 1.3457600e+00 1.0412600e-01
3.0356033e+00 1.3297611e+00 1.1405456e-01
3.0061600e+00 1.3079844e+00 1.2697056e-01
2.9729100e+00 1.2804300e+00 1.4287400e-01
2.9358533e+00 1.2470978e+00 1.6176489e-01
2.8949900e+00 1.2079878e+00 1.8364322e-01
2.8503200e+00 1.1631000e+00 2.0850900e-01
2.8503200e+00 1.1631000e+00 2.0850900e-01
2.8149867e+00 1.1396722e+00 2.2156233e-01
2.7772567e+00 1.1159322e+00 2.3360867e-01
2.7371300e+00 1.0918800e+00 2.4464800e-01
2.6946067e+00 1.0675156e+00 2.5468033e-01
2.6496867e+00 1.0428389e+00 2.6370567e-01
2.6023700e+00 1.0178500e+00 2.7172400e-01
2.6023700e+00 1.0178500e+00 2.7172400e-01
2.5502056e+00 9.9138433e-01 2.7803822e-01
2.4935689e+00 9.6362767e-01 2.8095422e-01
2.4324600e+00 9.3458000e-01 2.8047200e-01
2.3668789e+00 9.0424133e-01 2.7659156e-01
2.2968256e+00 8.7261167e-01 2.6931289e-01
2.2223000e+00 8.3969100e-01 2.5863600e-01
2.2223000e+00 8.3969100e-01 2.5863600e-01
2.1575078e+00 8.0008267e-01 2.4604211e-01
2.0995811e+00 7.5899967e-01 2.3716478e-01
2.0485200e+00 7.1644200e-01 2.3200400e-01
2.0043244e+00 6.7240967e-01 2.3055978e-01
1.9669944e+00 6.2690267e-01 2.3283211e-01
1.9365300e+00 5.7992100e-01 2.3882100e-01
1.9365300e+00 5.7992100e-01 2.3882100e-01
1.9007778e+00 5.3542767e-01 2.4020656e-01
1.8638278e+00 4.9206900e-01 2.3910289e-01
1.8256800e+00 4.4984500e-01 2.3551000e-01
1.7863344e+00 4.0875567e-01 2.2942789e-01
1.7457911e+00 3.6880100e-01 2.2085656e-01
1.7040500e+00 3.2998100e-01 2.0979600e-01
1.7040500e+00 3.2998100e-01 2.0979600e-01
1.6637778e+00 2.8994596e-01 2.0141933e-01
1.6205578e+00 2.5020662e-01 1.9180367e-01
1.5743900e+00 2.1076300e-01 1.8094900e-01
1.5252744e+00 1.7161509e-01 1.6885533e-01
1.4732111e+00 1.3276289e-01 1.5552267e-01
1.4182000e+00 9.4206400e-02 1.4095100e-01
1.4182000e+00 9.4206400e-02 1.4095100e-01
1.3574758e+00 5.7824733e-02 1.2293658e-01
1.2929858e+00 2.5393307e-02 1.0408758e-01
1.2247300e+00 -3.0878800e-03 8.4404000e-02
1.1527084e+00 -2.7618827e-02 6.3885844e-02
1.0769211e+00 -4.8199533e-02 4.2533111e-02
9.9736800e-01 -6.4830000e-02 2.0345800e-02
9.9736800e-01 -6.4830000e-02 2.0345800e-02
9.1351033e-01 -7.4204522e-02 5.0033333e-04
8.3221933e-01 -8.0393522e-02 -1.5467200e-02
7.5349500e-01 -8.3397000e-02 -2.7556800e-02
6.7733733e-01 -8.3214956e-02 -3.5768467e-02
6.0374633e-01 -7.9847389e-02 -4.0102200e-02
5.3272200e-01 -7.3294300e-02 -4.0558000e-02
5.3272200e-01 -7.3294300e-02 -4.0558000e-02
4.6967678e-01 -6.4680733e-02 -4.0949278e-02
4.1099278e-01 -5.5393267e-02 -4.0659111e-02
3.5667000e-01 -4.5431900e-02 -3.9687500e-02
3.0670844e-01 -3.4796633e-02 -3.8034444e-02
2.6110811e-01 -2.3487467e-02 -3.5699944e-02
2.1986900e-01 -1.1504400e-02 -3.2684000e-02
2.1986900e-01 -1.1504400e-02 -3.2684000e-02
1.8141236e-01 -5.8685056e-03 -2.5399472e-02
1.4434470e-01 -1.0365556e-03 -1.7581602e-02
1.0866600e-01 2.9914500e-03 -9.2303900e-03
7.4376273e-02 6.2155111e-03 -3.4583556e-04
4.1475517e-02 8.6356278e-03 9.0720611e-03
9.9637300e-03 1.0251800e-02 1.9023300e-02
3.0594600e+00 1.3986300e+00 -1.0893600e-01
3.0920044e+00 1.4069156e+00 -8.8478549e-02
3.1225444e+00 1.4110622e+00 -6.8878749e-02
3.1510800e+00 1.4110700e+00 -5.0136600e-02
3.1776111e+00 1.4069389e+00 -3.2252102e-02
3.2021378e+00 1.3986689e+00 -1.5225254e-02
3.2246600e+00 1.3862600e+00 9.4394300e-04
3.2246600e+00 1.3862600e+00 9.4394300e-04
3.2422278e+00 1.3596922e+00 1.0369901e-02
3.2578644e+00 1.3308322e+00 1.5439353e-02
3.2715700e+00 1.2996800e+00 1.6152300e-02
3.2833444e+00 1.2662356e+00 1.2508742e-02
3.2931878e+00 1.2304989e+00 4.5086786e-03
3.3011000e+00 1.1924700e+00 -7.8478900e-03
3.3011000e+00 1.1924700e+00 -7.8478900e-03
3.3079911e+00 1.1507289e+00 -1.8394006e-02
3.3134678e+00 1.1152722e+00 -2.7129809e-02
3.3175300e+00 1.0861000e+00 -3.4055300e-02
3.3201778e+00 1.0632122e+00 -3.9170479e-02
3.3214111e+00 1.0466089e+00 -4.2475346e-02
3.3212300e+00 1.0362900e+00 -4.3969900e-02
3.3212300e+00 1.0362900e+00 -4.3969900e-02
3.3248756e+00 1.0429311e+00 -3.9020311e-02
3.3301222e+00 1.0491211e+00 -3.3835278e-02
3.3369700e+00 1.0548600e+00 -2.8414800e-02
3.3454189e+00 1.0601478e+00 -2.2758878e-02
3.3554689e+00 1.0649844e+00 -1.6867511e-02
3.3671200e+00 1.0693700e+00 -1.0740700e-02
3.0072700e+00 1.3734900e+00 3.2341200e-03
3.0201956e+00 1.3759156e+00 3.0453900e-02
3.0315489e+00 1.3755222e+00 5.3511893e-02
3.0413300e+00 1.3723100e+00 7.2408100e-02
3.0495389e+00 1.3662789e+00 8.7142520e-02
3.0561756e+00 1.3574289e+00 9.7715153e-02
3.0612400e+00 1.3457600e+00 1.0412600e-01
3.4279800e+00 5.3638100e-01 -1.2325200e-01
3.3827389e+00 4.8007022e-01 -1.1829976e-01
3.3350889e+00 4.2533189e-01 -1.1096076e-01
3.2850300e+00 3.7216600e-01 -1.0123500e-01
3.2325622e+00 3.2057256e-01 -8.9122489e-02
3.1776856e+00 2.7055156e-01 -7.4623222e-02
3.1204000e+00 2.2210300e-01 -5.7737200e-02
3.1204000e+00 2.2210300e-01 -5.7737200e-02
3.0859622e+00 1.8935900e-01 -4.6789200e-02
3.0492756e+00 1.6023700e-01 -3.3474100e-02
3.0103400e+00 1.3473700e-01 -1.7791900e-02
2.9691556e+00 1.1285900e-01 2.5740000e-04
2.9257222e+00 9.4603000e-02 2.0673800e-02
2.8800400e+00 7.9969000e-02 4.3457300e-02
2.8800400e+00 7.9969000e-02 4.3457300e-02
2.8274867e+00 6.4487511e-02 6.4303778e-02
2.7743933e+00 5.0553044e-02 8.2345844e-02
2.7207600e+00 3.8165600e-02 9.7583500e-02
2.6665867e+00 2.7325178e-02 1.1001674e-01
2.6118733e+00 1.8031778e-02 1.1964558e-01
2.5566200e+00 1.0285400e-02 1.2647000e-01
2.5566200e+00 1.0285400e-02 1.2647000e-01
2.4943522e+00 3.7336500e-03 1.2805410e-01
2.4322656e+00 -1.7823000e-03 1.2672610e-01
2.3703600e+00 -6.2624500e-03 1.2248600e-01
2.3086356e+00 -9.7068000e-03 1.1533380e-01
2.2470922e+00 -1.2115350e-02 1.0526950e-01
2.1857300e+00 -1.3488100e-02 9.2293100e-02
2.1857300e+00 -1.3488100e-02 9.2293100e-02
2.1323500e+00 -1.1258250e-02 8.2227822e-02
2.0804833e+00 -7.9436200e-03 7.1879256e-02
2.0301300e+00 -3.5442100e-03 6.1247400e-02
1.9812900e+00 1.9399800e-03 5.0332256e-02
1.9339633e+00 8.5089500e-03 3.9133822e-02
1.8881500e+00 1.6162700e-02 2.7652100e-02
1.8881500e+00 1.6162700e-02 2.7652100e-02
1.8420300e+00 2.2246711e-02 1.4350389e-02
1.7956967e+00 2.8927611e-02 9.8455556e-04
1.7491500e+00 3.6205400e-02 -1.2445400e-02
1.7023900e+00 4.4080078e-02 -2.5939478e-02
1.6554167e+00 5.2551644e-02 -3.9497678e-02
1.6082300e+00 6.1620100e-02 -5.3120000e-02
1.6082300e+00 6.1620100e-02 -5.3120000e-02
1.5635778e+00 6.9138889e-02 -6.5696778e-02
1.5165778e+00 7.8074956e-02 -7.7020911e-02
1.4672300e+00 8.8428300e-02 -8.7092400e-02
1.4155344e+00 1.0019892e-01 -9.5911244e-02
1.3614911e+00 1.1338682e-01 -1.0347744e-01
1.3051000e+00 1.2799200e-01 -1.0979100e-01
1.3051000e+00 1.2799200e-01 -1.0979100e-01
1.2429070e+00 1.4603056e-01 -1.1464756e-01
1.1802637e+00 1.6112689e-01 -1.1822656e-01
1.1171700e+00 1.7328100e-01 -1.2052800e-01
1.0536260e+00 1.8249289e-01 -1.2155189e-01
9.8963167e-01 1.8876256e-01 -1.2129822e-01
9.2518700e-01 1.9209000e-01 -1.1976700e-01
9.2518700e-01 1.9209000e-01 -1.1976700e-01
8.5486500e-01 1.9243267e-01 -1.1730228e-01
7.8717567e-01 1.9053067e-01 -1.1202194e-01
7.2211900e-01 1.8638400e-01 -1.0392600e-01
6.5969500e-01 1.7999267e-01 -9.3014444e-02
5.9990367e-01 1.7135667e-01 -7.9287278e-02
5.4274500e-01 1.6047600e-01 -6.2744500e-02
5.4274500e-01 1.6047600e-01 -6.2744500e-02
4.8019711e-01 1.5230679e-01 -3.2920911e-02
4.2023311e-01 1.4228046e-01 -5.2334778e-03
3.6285300e-01 1.3039700e-01 2.0317800e-02
3.0805678e-01 1.1665642e-01 4.3732922e-02
2.5584444e-01 1.0105872e-01 6.5011889e-02
2.0621600e-01 8.3603900e-02 8.4154700e-02
2.0621600e-01 8.3603900e-02 8.4154700e-02
1.8023927e-01 7.0542211e-02 7.2140348e-02
1.5241360e-01 5.5469178e-02 5.9202048e-02
1.2273900e-01 3.8384800e-02 4.5339800e-02
9.1215467e-02 1.9289078e-02 3.0553604e-02
5.7843000e-02 -1.8179889e-03 1.4843461e-02
2.2621600e-02 -2.4936400e-02 -1.7906300e-03
1.0369300e+01 6.3468100e-01 1.4337900e-01
1.0344267e+01 5.7836489e-01 1.5954500e-01
1.0318033e+01 5.2439689e-01 1.7528267e-01
1.0290600e+01 4.7277700e-01 1.9059200e-01
1.0261967e+01 4.2350522e-01 2.0547300e-01
1.0232133e+01 3.7658156e-01 2.1992567e-01
1.0201100e+01 3.3200600e-01 2.3395000e-01
1.0201100e+01 3.3200600e-01 2.3395000e-01
1.0172511e+01 2.9959733e-01 2.4541344e-01
1.0142411e+01 2.7549667e-01 2.5557411e-01
1.0110800e+01 2.5970400e-01 2.6443200e-01
1.0077678e+01 2.5221933e-01 2.7198711e-01
1.0043044e+01 2.5304267e-01 2.7823944e-01
1.0006900e+01 2.6217400e-01 2.8318900e-01
1.0006900e+01 2.6217400e-01 2.8318900e-01
9.9732667e+00 2.6920400e-01 2.8536867e-01
9.9374833e+00 2.7759133e-01 2.8757167e-01
9.8995500e+00 2.8733600e-01 2.8979800e-01
9.8594667e+00 2.9843800e-01 2.9204767e-01
9.8172333e+00 3.1089733e-01 2.9432067e-01
9.7728500e+00 3.2471400e-01 2.9661700e-01
9.7728500e+00 3.2471400e-01 2.9661700e-01
9.7130600e+00 3.4373033e-01 3.0362600e-01
9.6554500e+00 3.5347600e-01 3.1037200e-01
9.6000200e+00 3.5395100e-01 3.1685500e-01
9.5467700e+00 3.4515533e-01 3.2307500e-01
9.4957000e+00 3.2708900e-01 3.2903200e-01
9.4468100e+00 2.9975200e-01 3.3472600e-01
9.4468100e+00 2.9975200e-01 3.3472600e-01
9.4069178e+00 2.6701728e-01 3.3097900e-01
9.3690744e+00 2.3387161e-01 3.2417633e-01
9.3332800e+00 2.0031500e-01 3.1431800e-01
9.2995344e+00 1.6634744e-01 3.0140400e-01
9.2678378e+00 1.3196894e-01 2.8543433e-01
9.2381900e+00 9.7179500e-02 2.6640900e-01
9.2381900e+00 9.7179500e-02 2.6640900e-01
9.2035022e+00 1.3442994e-01 2.7009200e-01
9.1650522e+00 1.6973511e-01 2.7220833e-01
9.1228400e+00 2.0309500e-01 2.7275800e-01
9.0768656e+00 2.3450961e-01 2.7174100e-01
9.0271289e+00 2.6397894e-01 2.6915733e-01
8.9736300e+00 2.9150300e-01 2.6500700e-01
8.9736300e+00 2.9150300e-01 2.6500700e-01
8.9197600e+00 3.1128878e-01 2.5203056e-01
8.8678667e+00 3.2361211e-01 2.3624422e-01
8.8179500e+00 3.2847300e-01 2.1764800e-01
8.7700100e+00 3.2587144e-01 1.9624189e-01
8.7240467e+00 3.1580744e-01 1.7202589e-01
8.6800600e+00 2.9828100e-01 1.4500000e-01
8.6800600e+00 2.9828100e-01 1.4500000e-01
8.6381511e+00 2.7074511e-01 1.2513391e-01
8.5934678e+00 2.4304411e-01 1.0438941e-01
8.5460100e+00 2.1517800e-01 8.2766500e-02
8.4957778e+00 1.8714678e-01 6.0265178e-02
8.4427711e+00 1.5895044e-01 3.6885444e-02
8.3869900e+00 1.3058900e-01 1.2627300e-02
8.3869900e+00 1.3058900e-01 1.2627300e-02
8.3215167e+00 1.0691950e-01 -1.5847000e-02
8.2533433e+00 9.1497733e-02 -4.0978267e-02
8.1824700e+00 8.4323700e-02 -6.2766500e-02
8.1088967e+00 8.5397400e-02 -8.1211700e-02
8.0326233e+00 9.4718833e-02 -9.6313867e-02
7.9536500e+00 1.1228800e-01 -1.0807300e-01
7.9536500e+00 1.1228800e-01 -1.0807300e-01
7.8796311e+00 1.4232800e-01 -1.1041922e-01
7.8119844e+00 1.7180300e-01 -1.1209389e-01
7.7507100e+00 2.0071300e-01 -1.1309700e-01
7.6958078e+00 2.2905800e-01 -1.1342856e-01
7.6472778e+00 2.5683800e-01 -1.1308856e-01
7.6051200e+00 2.8405300e-01 -1.1207700e-01
7.7677300e+00 3.5239900e-01 -1.6248300e-01
7.7495811e+00 3.3447856e-01 -1.5657811e-01
7.7278511e+00 3.1916989e-01 -1.4967478e-01
7.7025400e+00 3.0647300e-01 -1.4177300e-01
7.6736478e+00 2.9638789e-01 -1.3287278e-01
7.6411744e+00 2.8891456e-01 -1.2297411e-01
7.6051200e+00 2.8405300e-01 -1.1207700e-01
9.8765000e+00 6.8529400e-01 1.7152800e-01
9.8433689e+00 6.6391344e-01 1.5152311e-01
9.8091222e+00 6.4177478e-01 1.2976278e-01
9.7737600e+00 6.1887800e-01 1.0624700e-01
9.7372822e+00 5.9522311e-01 8.0975778e-02
9.6996889e+00 5.7081011e-01 5.3949111e-02
9.6609800e+00 5.4563900e-01 2.5167000e-02
9.6609800e+00 5.4563900e-01 2.5167000e-02
9.6209711e+00 5.1191967e-01 -5.3067778e-03
9.5819778e+00 4.7978000e-01 -2.7920144e-02
9.5440000e+00 4.4922000e-01 -4.2673100e-02
9.5070378e+00 4.2023967e-01 -4.9565644e-02
9.4710911e+00 3.9283900e-01 -4.8597778e-02
9.4361600e+00 3.6701800e-01 -3.9769500e-02
9.4361600e+00 3.6701800e-01 -3.9769500e-02
9.3884311e+00 3.6288478e-01 -4.8343889e-03
9.3382378e+00 3.6158444e-01 2.9280978e-02
9.2855800e+00 3.6311700e-01 6.2576600e-02
9.2304578e+00 3.6748244e-01 9.5052478e-02
9.1728711e+00 3.7468078e-01 1.2670861e-01
9.1128200e+00 3.8471200e-01 1.5754500e-01
9.1128200e+00 3.8471200e-01 1.5754500e-01
9.0542633e+00 3.9283489e-01 1.8600122e-01
8.9926033e+00 3.9771022e-01 2.1260389e-01
8.9278400e+00 3.9933800e-01 2.3735300e-01
8.8599733e+00 3.9771822e-01 2.6024856e-01
8.7890033e+00 3.9285089e-01 2.8129056e-01
8.7149300e+00 3.8473600e-01 3.0047900e-01
8.7149300e+00 3.8473600e-01 3.0047900e-01
8.6317189e+00 3.5689422e-01 2.7860211e-01
8.5451989e+00 3.3721222e-01 2.4660444e-01
8.4553700e+00 3.2569000e-01 2.0448600e-01
8.3622322e+00 3.2232756e-01 1.5224678e-01
8.2657856e+00 3.2712489e-01 8.9886778e-02
8.1660300e+00 3.4008200e-01 1.7406000e-02
8.1660300e+00 3.4008200e-01 1.7406000e-02
8.0786578e+00 3.5228011e-01 -3.5396333e-02
7.9996811e+00 3.6042011e-01 -7.9070333e-02
7.9291000e+00 3.6450200e-01 -1.1361600e-01
7.8669144e+00 3.6452578e-01 -1.3903333e-01
7.8131244e+00 3.6049144e-01 -1.5532233e-01
7.7677300e+00 3.5239900e-01 -1.6248300e-01
5.7793400e+00 6.8986200e-01 -1.4621700e-01
5.8265778e+00 6.4728144e-01 -1.3382844e-01
5.8822611e+00 6.0537044e-01 -1.2503744e-01
5.9463900e+00 5.6412900e-01 -1.1984400e-01
6.0189644e+00 5.2355711e-01 -1.1824811e-01
6.0999844e+00 4.8365478e-01 -1.2024978e-01
6.1894500e+00 4.4442200e-01 -1.2584900e-01
6.1894500e+00 4.4442200e-01 -1.2584900e-01
6.2905911e+00 4.2991311e-01 -1.2551622e-01
6.3942178e+00 4.2468344e-01 -1.2329556e-01
6.5003300e+00 4.2873300e-01 -1.1918700e-01
6.6089278e+00 4.4206178e-01 -1.1319056e-01
6.7200111e+00 4.6466978e-01 -1.0530622e-01
6.8335800e+00 4.9655700e-01 -9.5534000e-02
6.8335800e+00 4.9655700e-01 -9.5534000e-02
6.9376444e+00 5.3125556e-01 -9.3195111e-02
7.0393578e+00 5.5715589e-01 -9.2685644e-02
7.1387200e+00 5.7425800e-01 -9.4005600e-02
7.2357311e+00 5.8256189e-01 -9.7154978e-02
7.3303911e+00 5.8206756e-01 -1.0213378e-01
7.4227000e+00 5.7277500e-01 -1.0894200e-01
7.4227000e+00 5.7277500e-01 -1.0894200e-01
7.5005078e+00 5.3957622e-01 -1.1916800e-01
7.5701944e+00 5.0496522e-01 -1.2887300e-01
7.6317600e+00 4.6894200e-01 -1.3805700e-01
7.6852044e+00 4.3150656e-01 -1.4672000e-01
7.7305278e+00 3.9265889e-01 -1.5486200e-01
7.7677300e+00 3.5239900e-01 -1.6248300e-01