# vtk DataFile Version 2.0
test
ASCII
DATASET POLYDATA
POINTS 4361 float
5.2547622e+00 7.0957815e+00 1.1858709e+01
5.3677989e+00 7.1524574e+00 1.1734216e+01
5.4825765e+00 7.2079922e+00 1.1610895e+01
5.5990950e+00 7.2623861e+00 1.1488746e+01
5.7173544e+00 7.3156389e+00 1.1367769e+01
5.8373547e+00 7.3677506e+00 1.1247965e+01
5.9590958e+00 7.4187214e+00 1.1129333e+01
5.9590958e+00 7.4187214e+00 1.1129333e+01
6.0842001e+00 7.4764626e+00 1.1014535e+01
6.2153670e+00 7.5325256e+00 1.0907791e+01
6.3525965e+00 7.5869105e+00 1.0809100e+01
6.4958886e+00 7.6396172e+00 1.0718463e+01
6.6452433e+00 7.6906458e+00 1.0635879e+01
6.8006606e+00 7.7399961e+00 1.0561349e+01
6.8006606e+00 7.7399961e+00 1.0561349e+01
6.9675058e+00 7.7833922e+00 1.0509205e+01
7.1363096e+00 7.8244725e+00 1.0471901e+01
7.3070720e+00 7.8632370e+00 1.0449437e+01
7.4797931e+00 7.8996859e+00 1.0441813e+01
7.6544727e+00 7.9338190e+00 1.0449028e+01
7.8311111e+00 7.9656364e+00 1.0471083e+01
7.8311111e+00 7.9656364e+00 1.0471083e+01
8.0058301e+00 7.9932695e+00 1.0495085e+01
8.1801878e+00 8.0187931e+00 1.0522766e+01
8.3541842e+00 8.0422072e+00 1.0554126e+01
8.5278193e+00 8.0635117e+00 1.0589164e+01
8.7010931e+00 8.0827067e+00 1.0627882e+01
8.8740056e+00 8.0997921e+00 1.0670279e+01
8.8740056e+00 8.0997921e+00 1.0670279e+01
9.0467799e+00 8.1148918e+00 1.0714067e+01
9.2204674e+00 8.1279331e+00 1.0753723e+01
9.3950682e+00 8.1389161e+00 1.0789248e+01
9.5705823e+00 8.1478407e+00 1.0820642e+01
9.7470097e+00 8.1547070e+00 1.0847903e+01
9.9243503e+00 8.1595149e+00 1.0871033e+01
9.9243503e+00 8.1595149e+00 1.0871033e+01
1.0104419e+01 8.1614138e+00 1.0885428e+01
1.0282712e+01 8.1612980e+00 1.0885579e+01
1.0459229e+01 8.1591677e+00 1.0871486e+01
1.0633970e+01 8.1550228e+00 1.0843149e+01
1.0806936e+01 8.1488633e+00 1.0800568e+01
1.0978125e+01 8.1406892e+00 1.0743744e+01
1.0978125e+01 8.1406892e+00 1.0743744e+01
1.1142017e+01 8.1301676e+00 1.0668767e+01
1.1297418e+01 8.1204804e+00 1.0582040e+01
1.1444327e+01 8.1116277e+00 1.0483564e+01
1.1582745e+01 8.1036095e+00 1.0373339e+01
1.1712672e+01 8.0964258e+00 1.0251365e+01
1.1834108e+01 8.0900766e+00 1.0117641e+01
1.1834108e+01 8.0900766e+00 1.0117641e+01
1.1942122e+01 8.1018851e+00 9.9754830e+00
1.2048818e+01 8.1111455e+00 9.8321737e+00
1.2154194e+01 8.1178578e+00 9.6877131e+00
1.2258250e+01 8.1220220e+00 9.5421013e+00
1.2360988e+01 8.1236382e+00 9.3953381e+00
1.2462406e+01 8.1227064e+00 9.2474237e+00
1.2462406e+01 8.1227064e+00 9.2474237e+00
1.2357125e+01 8.0499374e+00 9.1134651e+00
1.2251959e+01 7.9738859e+00 8.9815890e+00
1.2146908e+01 7.8945518e+00 8.8517954e+00
1.2041972e+01 7.8119353e+00 8.7240845e+00
1.1937150e+01 7.7260362e+00 8.5984560e+00
1.1832443e+01 7.6368546e+00 8.4749101e+00
1.1832443e+01 7.6368546e+00 8.4749101e+00
1.1727501e+01 7.5632063e+00 8.3416024e+00
1.1626299e+01 7.4885256e+00 8.2063667e+00
1.1528839e+01 7.4128127e+00 8.0692029e+00
1.1435118e+01 7.3360674e+00 7.9301112e+00
1.1345139e+01 7.2582899e+00 7.7890915e+00
1.1258900e+01 7.1794800e+00 7.6461438e+00
1.1258900e+01 7.1794800e+00 7.6461438e+00
1.1179231e+01 7.1016105e+00 7.4981449e+00
1.1107390e+01 7.0215186e+00 7.3483874e+00
1.1043379e+01 6.9392045e+00 7.1968713e+00
1.0987196e+01 6.8546680e+00 7.0435964e+00
1.0938842e+01 6.7679092e+00 6.8885629e+00
1.0898317e+01 6.6789281e+00 6.7317706e+00
1.0898317e+01 6.6789281e+00 6.7317706e+00
1.0870487e+01 6.5875474e+00 6.5740838e+00
1.0852575e+01 6.4946702e+00 6.4170026e+00
1.0844579e+01 6.4002965e+00 6.2605271e+00
1.0846500e+01 6.3044262e+00 6.1046573e+00
1.0858338e+01 6.2070594e+00 5.9493932e+00
1.0880093e+01 6.1081960e+00 5.7947347e+00
1.0880093e+01 6.1081960e+00 5.7947347e+00
1.0910486e+01 6.0083409e+00 5.6430748e+00
1.0947219e+01 5.9071484e+00 5.4944826e+00
1.0990291e+01 5.8046185e+00 5.3489582e+00
1.1039703e+01 5.7007511e+00 5.2065016e+00
1.1095455e+01 5.5955464e+00 5.0671127e+00
1.1157546e+01 5.4890042e+00 4.9307916e+00
1.1157546e+01 5.4890042e+00 4.9307916e+00
1.1222466e+01 5.3820718e+00 4.7967709e+00
1.1288969e+01 5.2742674e+00 4.6643120e+00
1.1357057e+01 5.1655911e+00 4.5334146e+00
1.1426728e+01 5.0560427e+00 4.4040790e+00
1.1497984e+01 4.9456223e+00 4.2763050e+00
1.1570823e+01 4.8343299e+00 4.1500926e+00
1.1570823e+01 4.8343299e+00 4.1500926e+00
1.1642515e+01 4.7209843e+00 4.0252926e+00
1.1711429e+01 4.6049784e+00 3.9013300e+00
1.1777564e+01 4.4863122e+00 3.7782048e+00
1.1840922e+01 4.3649858e+00 3.6559170e+00
1.1901501e+01 4.2409990e+00 3.5344667e+00
1.1959302e+01 4.1143521e+00 3.4138537e+00
1.1959302e+01 4.1143521e+00 3.4138537e+00
1.2012245e+01 3.9847975e+00 3.2936115e+00
1.2058042e+01 3.8531743e+00 3.1735953e+00
1.2096692e+01 3.7194822e+00 3.0538051e+00
1.2128195e+01 3.5837214e+00 2.9342409e+00
1.2152551e+01 3.4458919e+00 2.8149028e+00
1.2169761e+01 3.3059935e+00 2.6957906e+00
1.2169761e+01 3.3059935e+00 2.6957906e+00
1.2178955e+01 3.1628325e+00 2.5786581e+00
1.2178835e+01 3.0190055e+00 2.4633918e+00
1.2169400e+01 2.8745128e+00 2.3499915e+00
1.2150650e+01 2.7293541e+00 2.2384574e+00
1.2122586e+01 2.5835296e+00 2.1287893e+00
1.2085207e+01 2.4370393e+00 2.0209874e+00
1.2085207e+01 2.4370393e+00 2.0209874e+00
1.2037921e+01 2.2939355e+00 1.9129392e+00
1.1983937e+01 2.1520276e+00 1.8072378e+00
1.1923256e+01 2.0113157e+00 1.7038831e+00
1.1855877e+01 1.8717997e+00 1.6028752e+00
1.1781801e+01 1.7334797e+00 1.5042141e+00
1.1701028e+01 1.5963557e+00 1.4078997e+00
1.1701028e+01 1.5963557e+00 1.4078997e+00
1.1612040e+01 1.4616260e+00 1.3155783e+00
1.1519885e+01 1.3279254e+00 1.2252835e+00
1.1424560e+01 1.1952541e+00 1.1370155e+00
1.1326068e+01 1.0636120e+00 1.0507742e+00
1.1224407e+01 9.3299908e-01 9.6655951e-01
1.1119578e+01 8.0341537e-01 8.8437157e-01
1.1119578e+01 8.0341537e-01 8.8437157e-01
1.1015325e+01 6.7179761e-01 8.0338963e-01
1.0910592e+01 5.4036871e-01 7.2297043e-01
1.0805377e+01 4.0912865e-01 6.4311397e-01
1.0699681e+01 2.7807745e-01 5.6382025e-01
1.0593504e+01 1.4721510e-01 4.8508927e-01
1.0486846e+01 1.6541600e-02 4.0692103e-01
2.9759100e+00 6.0408141e+00 1.1742137e+01
2.9377875e+00 5.9957294e+00 1.1559947e+01
2.8995841e+00 5.9465209e+00 1.1379022e+01
2.8612998e+00 5.8931885e+00 1.1199364e+01
2.8229345e+00 5.8357323e+00 1.1020971e+01
2.7844883e+00 5.7741522e+00 1.0843844e+01
2.7459612e+00 5.7084483e+00 1.0667984e+01
2.7459612e+00 5.7084483e+00 1.0667984e+01
2.7174318e+00 5.6551732e+00 1.0485927e+01
2.6954063e+00 5.5997195e+00 1.0304209e+01
2.6798846e+00 5.5420871e+00 1.0122830e+01
2.6708667e+00 5.4822760e+00 9.9417884e+00
2.6683527e+00 5.4202863e+00 9.7610856e+00
2.6723426e+00 5.3561179e+00 9.5807212e+00
2.6723426e+00 5.3561179e+00 9.5807212e+00
2.6881589e+00 5.2864667e+00 9.4022035e+00
2.7131673e+00 5.2134144e+00 9.2276111e+00
2.7473676e+00 5.1369610e+00 9.0569440e+00
2.7907598e+00 5.0571063e+00 8.8902022e+00
2.8433440e+00 4.9738505e+00 8.7273857e+00
2.9051202e+00 4.8871935e+00 8.5684945e+00
2.9051202e+00 4.8871935e+00 8.5684945e+00
2.9828318e+00 4.7958137e+00 8.4184265e+00
3.0710055e+00 4.7027039e+00 8.2782488e+00
3.1696416e+00 4.6078643e+00 8.1479612e+00
3.2787399e+00 4.5112947e+00 8.0275637e+00
3.3983005e+00 4.4129952e+00 7.9170565e+00
3.5283233e+00 4.3129657e+00 7.8164394e+00
3.5283233e+00 4.3129657e+00 7.8164394e+00
3.6570777e+00 4.2135498e+00 7.7179030e+00
3.7864703e+00 4.1132336e+00 7.6213217e+00
3.9165012e+00 4.0120174e+00 7.5266955e+00
4.0471704e+00 3.9099009e+00 7.4340243e+00
4.1784778e+00 3.8068843e+00 7.3433081e+00
4.3104235e+00 3.7029676e+00 7.2545470e+00
4.3104235e+00 3.7029676e+00 7.2545470e+00
4.4440742e+00 3.5968115e+00 7.1701615e+00
4.5741678e+00 3.4880642e+00 7.0840297e+00
4.7007042e+00 3.3767257e+00 6.9961516e+00
4.8236836e+00 3.2627960e+00 6.9065272e+00
4.9431058e+00 3.1462750e+00 6.8151566e+00
5.0589709e+00 3.0271629e+00 6.7220396e+00
5.0589709e+00 3.0271629e+00 6.7220396e+00
5.1684798e+00 2.9054145e+00 6.6228915e+00
5.2678367e+00 2.7812624e+00 6.5185543e+00
5.3570418e+00 2.6547067e+00 6.4090278e+00
5.4360948e+00 2.5257473e+00 6.2943121e+00
5.5049960e+00 2.3943842e+00 6.1744072e+00
5.5637452e+00 2.2606175e+00 6.0493132e+00
5.5637452e+00 2.2606175e+00 6.0493132e+00
5.6041617e+00 2.1251333e+00 5.9182730e+00
5.6324092e+00 1.9905565e+00 5.7853603e+00
5.6484878e+00 1.8568870e+00 5.6505749e+00
5.6523974e+00 1.7241249e+00 5.5139170e+00
5.6441380e+00 1.5922701e+00 5.3753865e+00
5.6237096e+00 1.4613227e+00 5.2349834e+00
5.6237096e+00 1.4613227e+00 5.2349834e+00
5.5952240e+00 1.3349031e+00 5.0926446e+00
5.5612951e+00 1.2102392e+00 4.9503415e+00
5.5219230e+00 1.0873310e+00 4.8080741e+00
5.4771077e+00 9.6617847e-01 4.6658423e+00
5.4268492e+00 8.4678161e-01 4.5236462e+00
5.3711474e+00 7.2914041e-01 4.3814857e+00
5.3711474e+00 7.2914041e-01 4.3814857e+00
5.3138103e+00 6.0840406e-01 4.2430811e+00
5.2553539e+00 4.8764670e-01 4.1050333e+00
5.1957780e+00 3.6686836e-01 3.9673422e+00
5.1350827e+00 2.4606903e-01 3.8300080e+00
5.0732680e+00 1.2524870e-01 3.6930306e+00
5.0103339e+00 4.4073800e-03 3.5564100e+00
1.7555400e+00 5.8492114e+00 1.3874658e+01
1.8273863e+00 5.9570268e+00 1.3727173e+01
1.9113900e+00 6.0635304e+00 1.3589328e+01
2.0075511e+00 6.1687222e+00 1.3461123e+01
2.1158694e+00 6.2726022e+00 1.3342559e+01
2.2363452e+00 6.3751705e+00 1.3233634e+01
2.3689782e+00 6.4764269e+00 1.3134350e+01
2.3689782e+00 6.4764269e+00 1.3134350e+01
2.5332163e+00 6.5629262e+00 1.3075843e+01
2.7033869e+00 6.6388074e+00 1.3030622e+01
2.8794900e+00 6.7040704e+00 1.2998689e+01
3.0615255e+00 6.7587152e+00 1.2980041e+01
3.2494935e+00 6.8027419e+00 1.2974681e+01
3.4433940e+00 6.8361504e+00 1.2982607e+01
3.4433940e+00 6.8361504e+00 1.2982607e+01
3.6382213e+00 6.8624779e+00 1.2990676e+01
3.8290982e+00 6.8879704e+00 1.2980778e+01
4.0160248e+00 6.9126279e+00 1.2952911e+01
4.1990010e+00 6.9364505e+00 1.2907076e+01
4.3780269e+00 6.9594381e+00 1.2843273e+01
4.5531025e+00 6.9815908e+00 1.2761501e+01
4.5531025e+00 6.9815908e+00 1.2761501e+01
4.6992204e+00 7.0073413e+00 1.2635721e+01
4.8336685e+00 7.0304044e+00 1.2500066e+01
4.9564467e+00 7.0507799e+00 1.2354538e+01
5.0675551e+00 7.0684679e+00 1.2199136e+01
[...]
POINT_DATA 4361
VECTORS U float
1.9578600e+00 6.3293300e-01 -8.5483000e-03
1.9750611e+00 6.1811278e-01 6.5241111e-04
1.9913678e+00 6.0182878e-01 8.7060444e-03
2.0067800e+00 5.8408100e-01 1.5612600e-02
2.0212978e+00 5.6486944e-01 2.1372078e-02
2.0349211e+00 5.4419411e-01 2.5984478e-02
2.0476500e+00 5.2205500e-01 2.9449800e-02
2.0476500e+00 5.2205500e-01 2.9449800e-02
2.0575644e+00 5.0548844e-01 3.2527422e-02
2.0663511e+00 4.8771144e-01 3.3533056e-02
2.0740100e+00 4.6872400e-01 3.2466700e-02
2.0805411e+00 4.4852611e-01 2.9328356e-02
2.0859444e+00 4.2711778e-01 2.4118022e-02
2.0902200e+00 4.0449900e-01 1.6835700e-02
2.0902200e+00 4.0449900e-01 1.6835700e-02
2.0974244e+00 3.7862644e-01 1.3393889e-02
2.1038411e+00 3.5430111e-01 1.2018956e-02
2.1094700e+00 3.3152300e-01 1.2710900e-02
2.1143111e+00 3.1029211e-01 1.5469722e-02
2.1183644e+00 2.9060844e-01 2.0295422e-02
2.1216300e+00 2.7247200e-01 2.7188000e-02
2.1216300e+00 2.7247200e-01 2.7188000e-02
2.1244000e+00 2.5475789e-01 2.7761667e-02
2.1267533e+00 2.3832622e-01 2.8338700e-02
2.1286900e+00 2.2317700e-01 2.8919100e-02
2.1302100e+00 2.0931022e-01 2.9502867e-02
2.1313133e+00 1.9672589e-01 3.0090000e-02
2.1320000e+00 1.8542400e-01 3.0680500e-02
2.1320000e+00 1.8542400e-01 3.0680500e-02
2.1320978e+00 1.7475933e-01 3.2823033e-02
2.1321078e+00 1.6479267e-01 3.4886000e-02
2.1320300e+00 1.5552400e-01 3.6869400e-02
2.1318644e+00 1.4695333e-01 3.8773233e-02
2.1316111e+00 1.3908067e-01 4.0597500e-02
2.1312700e+00 1.3190600e-01 4.2342200e-02
2.1312700e+00 1.3190600e-01 4.2342200e-02
2.1309511e+00 1.2467911e-01 4.4074089e-02
2.1304211e+00 1.1845144e-01 4.4756089e-02
2.1296800e+00 1.1322300e-01 4.4388200e-02
2.1287278e+00 1.0899378e-01 4.2970422e-02
2.1275644e+00 1.0576378e-01 4.0502756e-02
2.1261900e+00 1.0353300e-01 3.6985200e-02
2.1261900e+00 1.0353300e-01 3.6985200e-02
2.1250111e+00 1.0210989e-01 3.4219854e-02
2.1221711e+00 1.0315022e-01 2.9958954e-02
2.1176700e+00 1.0665400e-01 2.4202500e-02
2.1115078e+00 1.1262122e-01 1.6950491e-02
2.1036844e+00 1.2105189e-01 8.2029278e-03
2.0942000e+00 1.3194600e-01 -2.0401900e-03
2.0942000e+00 1.3194600e-01 -2.0401900e-03
2.0776033e+00 1.6143111e-01 -1.6542061e-02
2.0623267e+00 1.8866778e-01 -2.9877331e-02
2.0483700e+00 2.1365600e-01 -4.2046000e-02
2.0357333e+00 2.3639578e-01 -5.3048068e-02
2.0244167e+00 2.5688711e-01 -6.2883534e-02
2.0144200e+00 2.7513000e-01 -7.1552400e-02
2.0144200e+00 2.7513000e-01 -7.1552400e-02
2.0040011e+00 2.6600889e-01 -6.1271156e-02
1.9923544e+00 2.5411989e-01 -4.8298189e-02
1.9794800e+00 2.3946300e-01 -3.2633500e-02
1.9653778e+00 2.2203822e-01 -1.4277089e-02
1.9500478e+00 2.0184556e-01 6.7710444e-03
1.9334900e+00 1.7888500e-01 3.0510900e-02
1.9334900e+00 1.7888500e-01 3.0510900e-02
1.9141811e+00 1.7250867e-01 4.5825111e-02
1.8938444e+00 1.6665867e-01 6.0770178e-02
1.8724800e+00 1.6133500e-01 7.5346100e-02
1.8500878e+00 1.5653767e-01 8.9552878e-02
1.8266678e+00 1.5226667e-01 1.0339051e-01
1.8022200e+00 1.4852200e-01 1.1685900e-01
1.8022200e+00 1.4852200e-01 1.1685900e-01
1.7772678e+00 1.4800322e-01 1.2755767e-01
1.7508444e+00 1.4730222e-01 1.3724633e-01
1.7229500e+00 1.4641900e-01 1.4592500e-01
1.6935844e+00 1.4535356e-01 1.5359367e-01
1.6627478e+00 1.4410589e-01 1.6025233e-01
1.6304400e+00 1.4267600e-01 1.6590100e-01
1.6304400e+00 1.4267600e-01 1.6590100e-01
1.5984522e+00 1.4075700e-01 1.6991556e-01
1.5665022e+00 1.3831900e-01 1.7214889e-01
1.5345900e+00 1.3536200e-01 1.7260100e-01
1.5027156e+00 1.3188600e-01 1.7127189e-01
1.4708789e+00 1.2789100e-01 1.6816156e-01
1.4390800e+00 1.2337700e-01 1.6327000e-01
1.4390800e+00 1.2337700e-01 1.6327000e-01
1.4077756e+00 1.1797389e-01 1.5729967e-01
1.3774389e+00 1.1162656e-01 1.5121967e-01
1.3480700e+00 1.0433500e-01 1.4503000e-01
1.3196689e+00 9.6099222e-02 1.3873067e-01
1.2922356e+00 8.6919222e-02 1.3232167e-01
1.2657700e+00 7.6795000e-02 1.2580300e-01
1.2657700e+00 7.6795000e-02 1.2580300e-01
1.2392667e+00 6.6703078e-02 1.1877449e-01
1.2128333e+00 5.6747478e-02 1.1131182e-01
1.1864700e+00 4.6928200e-02 1.0341500e-01
1.1601767e+00 3.7245244e-02 9.5084022e-02
1.1339533e+00 2.7698611e-02 8.6318889e-02
1.1078000e+00 1.8288300e-02 7.7119600e-02
1.1078000e+00 1.8288300e-02 7.7119600e-02
1.0805031e+00 8.2713000e-03 6.8060378e-02
1.0519498e+00 -2.3020667e-03 5.9097111e-02
1.0221400e+00 -1.3431800e-02 5.0229800e-02
9.9107378e-01 -2.5117900e-02 4.1458444e-02
9.5875111e-01 -3.7360367e-02 3.2783044e-02
9.2517200e-01 -5.0159200e-02 2.4203600e-02
9.2517200e-01 -5.0159200e-02 2.4203600e-02
8.8960944e-01 -6.3032444e-02 1.5941853e-02
8.5228111e-01 -7.4788111e-02 7.9352711e-03
8.1318700e-01 -8.5426200e-02 1.8385500e-04
7.7232711e-01 -9.4946711e-02 -7.3123956e-03
7.2970144e-01 -1.0334964e-01 -1.4553481e-02
6.8531000e-01 -1.1063500e-01 -2.1539400e-02
6.8531000e-01 -1.1063500e-01 -2.1539400e-02
6.4105667e-01 -1.1714922e-01 -2.6106389e-02
5.9737667e-01 -1.2186522e-01 -2.9447356e-02
5.5427000e-01 -1.2478300e-01 -3.1562300e-02
5.1173667e-01 -1.2590256e-01 -3.2451222e-02
4.6977667e-01 -1.2522389e-01 -3.2114122e-02
4.2839000e-01 -1.2274700e-01 -3.0551000e-02
4.2839000e-01 -1.2274700e-01 -3.0551000e-02
3.8947778e-01 -1.1594144e-01 -3.1003522e-02
3.5317211e-01 -1.0844844e-01 -3.1205022e-02
3.1947300e-01 -1.0026800e-01 -3.1155500e-02
2.8838044e-01 -9.1400111e-02 -3.0854956e-02
2.5989444e-01 -8.1844778e-02 -3.0303389e-02
2.3401500e-01 -7.1602000e-02 -2.9500800e-02
2.3401500e-01 -7.1602000e-02 -2.9500800e-02
2.0699571e-01 -6.0955867e-02 -2.7245633e-02
1.8157704e-01 -5.0641167e-02 -2.4696767e-02
1.5775900e-01 -4.0657900e-02 -2.1854200e-02
1.3554158e-01 -3.1006067e-02 -1.8717933e-02
1.1492478e-01 -2.1685667e-02 -1.5287967e-02
9.5908600e-02 -1.2696700e-02 -1.1564300e-02
9.5908600e-02 -1.2696700e-02 -1.1564300e-02
7.9984767e-02 -6.9400389e-03 -7.8413117e-03
6.4922200e-02 -1.5368222e-03 -4.1404187e-03
5.0720900e-02 3.5129500e-03 -4.6162100e-04
3.7380867e-02 8.2092778e-03 3.1950813e-03
2.4902100e-02 1.2552161e-02 6.8296883e-03
1.3284600e-02 1.6541600e-02 1.0442200e-02
1.7577900e+00 8.2930200e-01 9.7582200e-02
1.7422544e+00 8.2044856e-01 1.0291256e-01
1.7243378e+00 8.0805756e-01 1.0958949e-01
1.7040400e+00 7.9212900e-01 1.1761300e-01
1.6813611e+00 7.7266289e-01 1.2698309e-01
1.6563011e+00 7.4965922e-01 1.3769976e-01
1.6288600e+00 7.2311800e-01 1.4976300e-01
1.6288600e+00 7.2311800e-01 1.4976300e-01
1.6069244e+00 7.1021011e-01 1.5623400e-01
1.5835311e+00 6.9697211e-01 1.6198833e-01
1.5586800e+00 6.8340400e-01 1.6702600e-01
1.5323711e+00 6.6950578e-01 1.7134700e-01
1.5046044e+00 6.5527744e-01 1.7495133e-01
1.4753800e+00 6.4071900e-01 1.7783900e-01
1.4753800e+00 6.4071900e-01 1.7783900e-01
1.4452367e+00 6.2347800e-01 1.8012544e-01
1.4126500e+00 6.0502867e-01 1.8028978e-01
1.3776200e+00 5.8537100e-01 1.7833200e-01
1.3401467e+00 5.6450500e-01 1.7425211e-01
1.3002300e+00 5.4243067e-01 1.6805011e-01
1.2578700e+00 5.1914800e-01 1.5972600e-01
1.2578700e+00 5.1914800e-01 1.5972600e-01
1.2205522e+00 4.9269978e-01 1.5024811e-01
1.1875856e+00 4.6582011e-01 1.4351478e-01
1.1589700e+00 4.3850900e-01 1.3952600e-01
1.1347056e+00 4.1076644e-01 1.3828178e-01
1.1147922e+00 3.8259244e-01 1.3978211e-01
1.0992300e+00 3.5398700e-01 1.4402700e-01
1.0992300e+00 3.5398700e-01 1.4402700e-01
1.0800722e+00 3.2698611e-01 1.4485933e-01
1.0604622e+00 3.0073278e-01 1.4449400e-01
1.0404000e+00 2.7522700e-01 1.4293100e-01
1.0198856e+00 2.5046878e-01 1.4017033e-01
9.9891889e-01 2.2645811e-01 1.3621200e-01
9.7750000e-01 2.0319500e-01 1.3105600e-01
9.7750000e-01 2.0319500e-01 1.3105600e-01
9.5829167e-01 1.7973937e-01 1.2919478e-01
9.3773867e-01 1.5658737e-01 1.2634144e-01
9.1584100e-01 1.3373900e-01 1.2249600e-01
8.9259867e-01 1.1119427e-01 1.1765844e-01
8.6801167e-01 8.8953167e-02 1.1182878e-01
8.4208000e-01 6.7015700e-02 1.0500700e-01
8.4208000e-01 6.7015700e-02 1.0500700e-01
8.1334211e-01 4.6402089e-02 9.5032944e-02
7.8187678e-01 2.7403689e-02 8.4207644e-02
7.4768400e-01 1.0020500e-02 7.2531100e-02
7.1076378e-01 -5.7474778e-03 6.0003311e-02
6.7111611e-01 -1.9900244e-02 4.6624278e-02
6.2874100e-01 -3.2437800e-02 3.2394000e-02
6.2874100e-01 -3.2437800e-02 3.2394000e-02
5.8045078e-01 -4.2077811e-02 1.8935561e-02
5.3255311e-01 -4.9253244e-02 7.6718244e-03
4.8504800e-01 -5.3964100e-02 -1.3972100e-03
4.3793544e-01 -5.6210378e-02 -8.2715422e-03
3.9121544e-01 -5.5992078e-02 -1.2951172e-02
3.4488800e-01 -5.3309200e-02 -1.5436100e-02
3.4488800e-01 -5.3309200e-02 -1.5436100e-02
3.0359700e-01 -4.7488383e-02 -1.8153333e-02
2.6498633e-01 -4.1104817e-02 -2.0126033e-02
2.2905600e-01 -3.4158500e-02 -2.1354200e-02
1.9580600e-01 -2.6649433e-02 -2.1837833e-02
1.6523633e-01 -1.8577617e-02 -2.1576933e-02
1.3734700e-01 -9.9430500e-03 -2.0571500e-02
1.3734700e-01 -9.9430500e-03 -2.0571500e-02
1.1223210e-01 -5.9420472e-03 -1.6237350e-02
8.8288963e-02 -2.5847502e-03 -1.1607793e-02
6.5517600e-02 1.2884100e-04 -6.6828300e-03
4.3918007e-02 2.1987264e-03 -1.4624600e-03
2.3490183e-02 3.6249061e-03 4.0533167e-03
4.2341300e-03 4.4073800e-03 9.8645000e-03
1.7555400e+00 8.7950700e-01 -4.5124600e-02
1.7766889e+00 8.8424822e-01 -3.3222733e-02
1.7966322e+00 8.8624222e-01 -2.1823967e-02
1.8153700e+00 8.8548900e-01 -1.0928300e-02
1.8329022e+00 8.8198856e-01 -5.3573333e-04
1.8492289e+00 8.7574089e-01 9.3537333e-03
1.8643500e+00 8.6674600e-01 1.8740100e-02
1.8643500e+00 8.6674600e-01 1.8740100e-02
1.8767944e+00 8.4878133e-01 2.4293722e-02
1.8880844e+00 8.2898700e-01 2.7054722e-02
1.8982200e+00 8.0736300e-01 2.7023100e-02
1.9072011e+00 7.8390933e-01 2.4198856e-02
1.9150278e+00 7.5862600e-01 1.8581989e-02
1.9217000e+00 7.3151300e-01 1.0172500e-02
1.9217000e+00 7.3151300e-01 1.0172500e-02
1.9277456e+00 7.0207833e-01 2.8737722e-03
1.9324722e+00 6.7667100e-01 -3.5401178e-03
1.9358800e+00 6.5529100e-01 -9.0691700e-03
1.9379689e+00 6.3793833e-01 -1.3713384e-02
1.9387389e+00 6.2461300e-01 -1.7472761e-02
1.9381900e+00 6.1531500e-01 -2.0347300e-02
1.9381900e+00 6.1531500e-01 -2.0347300e-02
1.9384656e+00 6.1761356e-01 -1.9819800e-02
1.9399422e+00 6.2016722e-01 -1.8716700e-02
1.9426200e+00 6.2297600e-01 -1.7038000e-02
1.9464989e+00 6.2603989e-01 -1.4783700e-02
1.9515789e+00 6.2935889e-01 -1.1953800e-02
1.9578600e+00 6.3293300e-01 -8.5483000e-03
1.7124000e+00 8.6253200e-01 2.3848100e-02
1.7231789e+00 8.6211033e-01 4.2262756e-02
1.7326722e+00 8.5964200e-01 5.8227156e-02
1.7408800e+00 8.5512700e-01 7.1741300e-02
1.7478022e+00 8.4856533e-01 8.2805189e-02
1.7534389e+00 8.3995700e-01 9.1418822e-02
1.7577900e+00 8.2930200e-01 9.7582200e-02
2.0144200e+00 2.7513000e-01 -7.1552400e-02
1.9935700e+00 2.4386222e-01 -6.8987256e-02
1.9719367e+00 2.1367689e-01 -6.5342989e-02
1.9495200e+00 1.8457400e-01 -6.0619600e-02
1.9263200e+00 1.5655356e-01 -5.4817089e-02
1.9023367e+00 1.2961556e-01 -4.7935456e-02
1.8775700e+00 1.0376000e-01 -3.9974700e-02
1.8775700e+00 1.0376000e-01 -3.9974700e-02
1.8639522e+00 8.8274511e-02 -3.6344922e-02
1.8484956e+00 7.4471611e-02 -3.0768122e-02
1.8312000e+00 6.2351300e-02 -2.3244300e-02
1.8120656e+00 5.1913578e-02 -1.3773456e-02
1.7910922e+00 4.3158444e-02 -2.3555889e-03
1.7682800e+00 3.6085900e-02 1.1009300e-02
1.7682800e+00 3.6085900e-02 1.1009300e-02
1.7420411e+00 2.7576904e-02 2.3093756e-02
1.7151678e+00 1.9958804e-02 3.3884589e-02
1.6876600e+00 1.3231600e-02 4.3381800e-02
1.6595178e+00 7.3952911e-03 5.1585389e-02
1.6307411e+00 2.4498778e-03 5.8495356e-02
1.6013300e+00 -1.6046400e-03 6.4111700e-02
1.6013300e+00 -1.6046400e-03 6.4111700e-02
1.5633556e+00 -5.4545111e-03 6.7677522e-02
1.5248922e+00 -8.6399978e-03 6.9344222e-02
1.4859400e+00 -1.1161100e-02 6.9111800e-02
1.4464989e+00 -1.3017818e-02 6.6980256e-02
1.4065689e+00 -1.4210151e-02 6.2949589e-02
1.3661500e+00 -1.4738100e-02 5.7019800e-02
1.3661500e+00 -1.4738100e-02 5.7019800e-02
1.3320822e+00 -1.2736957e-02 5.2496667e-02
1.2987256e+00 -9.9981800e-03 4.7633133e-02
1.2660800e+00 -6.5217700e-03 4.2429200e-02
1.2341456e+00 -2.3077267e-03 3.6884867e-02
1.2029222e+00 2.6439500e-03 3.1000133e-02
1.1724100e+00 8.3332600e-03 2.4775000e-02
1.1724100e+00 8.3332600e-03 2.4775000e-02
1.1414964e+00 1.2834256e-02 1.7188717e-02
1.1103331e+00 1.7763569e-02 9.5656533e-03
1.0789200e+00 2.3121200e-02 1.9058100e-03
1.0472571e+00 2.8907149e-02 -5.7908133e-03
1.0153444e+00 3.5121416e-02 -1.3524217e-02
9.8318200e-01 4.1764000e-02 -2.1294400e-02
9.8318200e-01 4.1764000e-02 -2.1294400e-02
9.5350700e-01 4.7108444e-02 -2.8515822e-02
9.2174567e-01 5.3540944e-02 -3.4771756e-02
8.8789800e-01 6.1061500e-02 -4.0062200e-02
8.5196400e-01 6.9670111e-02 -4.4387156e-02
8.1394367e-01 7.9366778e-02 -4.7746622e-02
7.7383700e-01 9.0151500e-02 -5.0140600e-02
7.7383700e-01 9.0151500e-02 -5.0140600e-02
7.2792722e-01 1.0398283e-01 -5.0497378e-02
6.8288722e-01 1.1528333e-01 -5.0137511e-02
6.3871700e-01 1.2405300e-01 -4.9061000e-02
5.9541656e-01 1.3029183e-01 -4.7267844e-02
5.5298589e-01 1.3399983e-01 -4.4758044e-02
5.1142500e-01 1.3517700e-01 -4.1531600e-02
5.1142500e-01 1.3517700e-01 -4.1531600e-02
4.6648422e-01 1.3356789e-01 -3.7811833e-02
4.2398422e-01 1.3029722e-01 -3.3622733e-02
3.8392500e-01 1.2536500e-01 -2.8964300e-02
3.4630656e-01 1.1877122e-01 -2.3836533e-02
3.1112889e-01 1.1051589e-01 -1.8239433e-02
2.7839200e-01 1.0059900e-01 -1.2173000e-02
2.7839200e-01 1.0059900e-01 -1.2173000e-02
2.4508444e-01 9.0789967e-02 -2.4614556e-03
2.1338911e-01 8.0707200e-02 6.4835778e-03
1.8330600e-01 7.0350700e-02 1.4662100e-02
1.5483511e-01 5.9720467e-02 2.2074111e-02
1.2797644e-01 4.8816500e-02 2.8719611e-02
1.0273000e-01 3.7638800e-02 3.4598600e-02
1.0273000e-01 3.7638800e-02 3.4598600e-02
8.9985333e-02 3.2257533e-02 2.9461969e-02
7.6524000e-02 2.5659133e-02 2.4133169e-02
6.2346000e-02 1.7843600e-02 1.8612200e-02
4.7451333e-02 8.8109333e-03 1.2899061e-02
3.1840000e-02 -1.4388667e-03 6.9937533e-03
1.5512000e-02 -1.2905800e-02 8.9627600e-04
6.2983300e+00 4.1693800e-01 1.2152800e-01
6.2858967e+00 3.8225722e-01 1.3184922e-01
6.2726267e+00 3.4891056e-01 1.4192722e-01
6.2585200e+00 3.1689800e-01 1.5176200e-01
6.2435767e+00 2.8621956e-01 1.6135356e-01
6.2277967e+00 2.5687522e-01 1.7070189e-01
6.2111800e+00 2.2886500e-01 1.7980700e-01
6.2111800e+00 2.2886500e-01 1.7980700e-01
6.1962711e+00 2.0959456e-01 1.8652222e-01
6.1807611e+00 1.9537622e-01 1.9263722e-01
6.1646500e+00 1.8621000e-01 1.9815200e-01
6.1479378e+00 1.8209589e-01 2.0306656e-01
6.1306244e+00 1.8303389e-01 2.0738089e-01
6.1127100e+00 1.8902400e-01 2.1109500e-01
6.1127100e+00 1.8902400e-01 2.1109500e-01
6.0953344e+00 1.9415844e-01 2.1366833e-01
6.0763678e+00 2.0002744e-01 2.1638900e-01
6.0558100e+00 2.0663100e-01 2.1925700e-01
6.0336611e+00 2.1396911e-01 2.2227233e-01
6.0099211e+00 2.2204178e-01 2.2543500e-01
5.9845900e+00 2.3084900e-01 2.2874500e-01
5.9845900e+00 2.3084900e-01 2.2874500e-01
5.9504278e+00 2.4150622e-01 2.3523333e-01
5.9177711e+00 2.4689222e-01 2.4151900e-01
5.8866200e+00 2.4700700e-01 2.4760200e-01
5.8569744e+00 2.4185056e-01 2.5348233e-01
5.8288344e+00 2.3142289e-01 2.5916000e-01
5.8022000e+00 2.1572400e-01 2.6463500e-01
5.8022000e+00 2.1572400e-01 2.6463500e-01
5.7809789e+00 1.9732311e-01 2.6515278e-01
5.7608789e+00 1.7844311e-01 2.6346511e-01
5.7419000e+00 1.5908400e-01 2.5957200e-01
5.7240422e+00 1.3924578e-01 2.5347344e-01
5.7073056e+00 1.1892844e-01 2.4516944e-01
5.6916900e+00 9.8132000e-02 2.3466000e-01
5.6916900e+00 9.8132000e-02 2.3466000e-01
5.6673311e+00 1.1847233e-01 2.3677411e-01
5.6407311e+00 1.3774467e-01 2.3767411e-01
5.6118900e+00 1.5594900e-01 2.3736000e-01
5.5808078e+00 1.7308533e-01 2.3583178e-01
5.5474844e+00 1.8915367e-01 2.3308944e-01
5.5119200e+00 2.0415400e-01 2.2913300e-01
5.5119200e+00 2.0415400e-01 2.2913300e-01
5.4771011e+00 2.1417156e-01 2.1938322e-01
5.4444178e+00 2.1983089e-01 2.0830989e-01
5.4138700e+00 2.2113200e-01 1.9591300e-01
5.3854578e+00 2.1807489e-01 1.8219256e-01
5.3591811e+00 2.1065956e-01 1.6714856e-01
5.3350400e+00 1.9888600e-01 1.5078100e-01
5.3350400e+00 1.9888600e-01 1.5078100e-01
5.3137067e+00 1.8207073e-01 1.4016522e-01
5.2905533e+00 1.6485540e-01 1.2875589e-01
5.2655800e+00 1.4724000e-01 1.1655300e-01
5.2387867e+00 1.2922453e-01 1.0355656e-01
5.2101733e+00 1.1080900e-01 8.9766556e-02
5.1797400e+00 9.1993400e-02 7.5183000e-02
5.1797400e+00 9.1993400e-02 7.5183000e-02
5.1425100e+00 7.4669800e-02 5.6846741e-02
5.1025833e+00 6.2275667e-02 4.0327708e-02
5.0599600e+00 5.4811000e-02 2.5625900e-02
5.0146400e+00 5.2275800e-02 1.2741318e-02
4.9666233e+00 5.4670067e-02 1.6739611e-03
4.9159100e+00 6.1993800e-02 -7.5761700e-03
4.9159100e+00 6.1993800e-02 -7.5761700e-03
4.8663867e+00 7.8570667e-02 -1.0831394e-02
4.8213533e+00 9.4848400e-02 -1.3301071e-02
4.7808100e+00 1.1082700e-01 -1.4985200e-02
4.7447567e+00 1.2650647e-01 -1.5883781e-02
4.7131933e+00 1.4188680e-01 -1.5996814e-02
4.6861200e+00 1.5696800e-01 -1.5324300e-02
4.7783700e+00 2.0482200e-01 -4.5916100e-02
4.7693311e+00 1.9189911e-01 -4.3603689e-02
4.7577578e+00 1.8095511e-01 -4.0176789e-02
4.7436500e+00 1.7199000e-01 -3.5635400e-02
4.7270078e+00 1.6500378e-01 -2.9979522e-02
4.7078311e+00 1.5999644e-01 -2.3209156e-02
4.6861200e+00 1.5696800e-01 -1.5324300e-02
5.9975300e+00 4.5222300e-01 1.2829000e-01
5.9782800e+00 4.3838867e-01 1.1580199e-01
5.9587667e+00 4.2417467e-01 1.0247649e-01
5.9389900e+00 4.0958100e-01 8.8313500e-02
5.9189500e+00 3.9460767e-01 7.3313022e-02
5.8986467e+00 3.7925467e-01 5.7475056e-02
5.8780800e+00 3.6352200e-01 4.0799600e-02
5.8780800e+00 3.6352200e-01 4.0799600e-02
5.8578144e+00 3.4365178e-01 2.3679702e-02
5.8380544e+00 3.2488611e-01 1.0906112e-02
5.8188000e+00 3.0722500e-01 2.4788300e-03
5.8000511e+00 2.9066844e-01 -1.6021444e-03
5.7818078e+00 2.7521644e-01 -1.3368111e-03
5.7640700e+00 2.6086900e-01 3.2748300e-03
5.7640700e+00 2.6086900e-01 3.2748300e-03
5.7374633e+00 2.5591711e-01 2.3800572e-02
5.7091467e+00 2.5287178e-01 4.4399962e-02
5.6791200e+00 2.5173300e-01 6.5073000e-02
5.6473833e+00 2.5250078e-01 8.5819686e-02
5.6139367e+00 2.5517511e-01 1.0664002e-01
5.5787800e+00 2.5975600e-01 1.2753400e-01
5.5787800e+00 2.5975600e-01 1.2753400e-01
5.5452389e+00 2.6712889e-01 1.4948544e-01
5.5101222e+00 2.7261989e-01 1.7131911e-01
5.4734300e+00 2.7622900e-01 1.9303500e-01
5.4351622e+00 2.7795622e-01 2.1463311e-01
5.3953189e+00 2.7780156e-01 2.3611344e-01
5.3539000e+00 2.7576500e-01 2.5747600e-01
5.3539000e+00 2.7576500e-01 2.5747600e-01
5.3084511e+00 2.5530189e-01 2.5021731e-01
5.2598244e+00 2.3873456e-01 2.3439831e-01
5.2080200e+00 2.2606300e-01 2.1001900e-01
5.1530378e+00 2.1728722e-01 1.7707938e-01
5.0948778e+00 2.1240722e-01 1.3557944e-01
5.0335400e+00 2.1142300e-01 8.5519200e-02
5.0335400e+00 2.1142300e-01 8.5519200e-02
4.9793589e+00 2.1399756e-01 4.8931106e-02
4.9298389e+00 2.1510222e-01 1.8215896e-02
4.8849800e+00 2.1473700e-01 -6.6264300e-03
4.8447822e+00 2.1290189e-01 -2.5595871e-02
4.8092456e+00 2.0959689e-01 -3.8692428e-02
4.7783700e+00 2.0482200e-01 -4.5916100e-02
3.5094400e+00 3.6981400e-01 -5.3359700e-02
3.5426600e+00 3.4204822e-01 -4.7029300e-02
3.5818700e+00 3.1545689e-01 -4.3421200e-02
3.6270700e+00 2.9004000e-01 -4.2535400e-02
3.6782600e+00 2.6579756e-01 -4.4371900e-02
3.7354400e+00 2.4272956e-01 -4.8930700e-02
3.7986100e+00 2.2083600e-01 -5.6211800e-02
3.7986100e+00 2.2083600e-01 -5.6211800e-02
3.8640922e+00 2.1780844e-01 -5.6581656e-02
3.9288989e+00 2.2056878e-01 -5.5158889e-02
3.9930300e+00 2.2911700e-01 -5.1943500e-02
4.0564856e+00 2.4345311e-01 -4.6935489e-02
4.1192656e+00 2.6357711e-01 -4.0134856e-02
4.1813700e+00 2.8948900e-01 -3.1541600e-02
4.1813700e+00 2.8948900e-01 -3.1541600e-02
4.2383356e+00 3.1562689e-01 -2.7468578e-02
4.2955589e+00 3.3597522e-01 -2.4176178e-02
4.3530400e+00 3.5053400e-01 -2.1664400e-02
4.4107789e+00 3.5930322e-01 -1.9933244e-02
4.4687756e+00 3.6228289e-01 -1.8982711e-02
4.5270300e+00 3.5947300e-01 -1.8812800e-02
4.5270300e+00 3.5947300e-01 -1.8812800e-02
4.5818700e+00 3.3748978e-01 -2.1994378e-02
4.6315300e+00 3.1398978e-01 -2.5710211e-02
4.6760100e+00 2.8897300e-01 -2.9960300e-02
4.7153100e+00 2.6243944e-01 -3.4744644e-02
4.7494300e+00 2.3438911e-01 -4.0063244e-02
4.7783700e+00 2.0482200e-01 -4.5916100e-02