# vtk DataFile Version 2.0
test
ASCII
DATASET POLYDATA
POINTS 4361 float
7.0149022e+00 7.6362585e+00 1.1854709e+01
7.1356400e+00 7.6798765e+00 1.1734973e+01
7.2571076e+00 7.7213753e+00 1.1615254e+01
7.3793050e+00 7.7607551e+00 1.1495552e+01
7.5022322e+00 7.7980156e+00 1.1375867e+01
7.6258891e+00 7.8331571e+00 1.1256199e+01
7.7502758e+00 7.8661794e+00 1.1136548e+01
7.7502758e+00 7.8661794e+00 1.1136548e+01
7.8770901e+00 7.9120787e+00 1.1020635e+01
8.0090603e+00 7.9558464e+00 1.0910875e+01
8.1461865e+00 7.9974825e+00 1.0807269e+01
8.2884686e+00 8.0369870e+00 1.0709817e+01
8.4359066e+00 8.0743599e+00 1.0618518e+01
8.5885006e+00 8.1096011e+00 1.0533373e+01
8.5885006e+00 8.1096011e+00 1.0533373e+01
8.7567036e+00 8.1348812e+00 1.0474240e+01
8.9266707e+00 8.1591228e+00 1.0433552e+01
9.0984020e+00 8.1823260e+00 1.0411307e+01
9.2718975e+00 8.2044909e+00 1.0407506e+01
9.4471572e+00 8.2256173e+00 1.0422149e+01
9.6241811e+00 8.2457054e+00 1.0455236e+01
9.6241811e+00 8.2457054e+00 1.0455236e+01
9.7987612e+00 8.2620214e+00 1.0483594e+01
9.9730089e+00 8.2769480e+00 1.0514665e+01
1.0146924e+01 8.2904852e+00 1.0548450e+01
1.0320507e+01 8.3026329e+00 1.0584949e+01
1.0493758e+01 8.3133912e+00 1.0624161e+01
1.0666676e+01 8.3227601e+00 1.0666087e+01
1.0666676e+01 8.3227601e+00 1.0666087e+01
1.0839040e+01 8.3302309e+00 1.0711471e+01
1.1012441e+01 8.3363219e+00 1.0751664e+01
1.1186878e+01 8.3410331e+00 1.0786666e+01
1.1362352e+01 8.3443645e+00 1.0816477e+01
1.1538863e+01 8.3463161e+00 1.0841097e+01
1.1716410e+01 8.3468879e+00 1.0860526e+01
1.1716410e+01 8.3468879e+00 1.0860526e+01
1.1896389e+01 8.3447932e+00 1.0871902e+01
1.2074152e+01 8.3412171e+00 1.0868272e+01
1.2249699e+01 8.3361597e+00 1.0849634e+01
1.2423030e+01 8.3296209e+00 1.0815990e+01
1.2594146e+01 8.3216008e+00 1.0767339e+01
1.2763045e+01 8.3120992e+00 1.0703682e+01
1.2763045e+01 8.3120992e+00 1.0703682e+01
1.2923656e+01 8.3017466e+00 1.0621265e+01
1.3075933e+01 8.2946491e+00 1.0528174e+01
1.3219877e+01 8.2908067e+00 1.0424409e+01
1.3355487e+01 8.2902195e+00 1.0309969e+01
1.3482764e+01 8.2928875e+00 1.0184855e+01
1.3601708e+01 8.2988106e+00 1.0049067e+01
1.3601708e+01 8.2988106e+00 1.0049067e+01
1.3706488e+01 8.3359665e+00 9.9079487e+00
1.3811057e+01 8.3682102e+00 9.7654599e+00
1.3915414e+01 8.3955418e+00 9.6216001e+00
1.4019559e+01 8.4179612e+00 9.4763694e+00
1.4123493e+01 8.4354684e+00 9.3297677e+00
1.4227216e+01 8.4480634e+00 9.1817951e+00
1.4227216e+01 8.4480634e+00 9.1817951e+00
1.4112133e+01 8.3686105e+00 9.0534825e+00
1.3996524e+01 8.2846423e+00 8.9296868e+00
1.3880388e+01 8.1961588e+00 8.8104077e+00
1.3763726e+01 8.1031600e+00 8.6956455e+00
1.3646538e+01 8.0056460e+00 8.5854000e+00
1.3528823e+01 7.9036166e+00 8.4796712e+00
1.3528823e+01 7.9036166e+00 8.4796712e+00
1.3410052e+01 7.8258814e+00 8.3563851e+00
1.3294447e+01 7.7459361e+00 8.2319893e+00
1.3182009e+01 7.6637807e+00 8.1064838e+00
1.3072736e+01 7.5794152e+00 7.9798688e+00
1.2966630e+01 7.4928396e+00 7.8521441e+00
1.2863690e+01 7.4040540e+00 7.7233098e+00
1.2863690e+01 7.4040540e+00 7.7233098e+00
1.2764602e+01 7.3215726e+00 7.5866678e+00
1.2672258e+01 7.2366091e+00 7.4478990e+00
1.2586659e+01 7.1491635e+00 7.3070033e+00
1.2507804e+01 7.0592358e+00 7.1639806e+00
1.2435693e+01 6.9668260e+00 7.0188311e+00
1.2370327e+01 6.8719341e+00 6.8715546e+00
1.2370327e+01 6.8719341e+00 6.8715546e+00
1.2321240e+01 6.7744044e+00 6.7216537e+00
1.2278840e+01 6.6753129e+00 6.5711538e+00
1.2243129e+01 6.5746595e+00 6.4200551e+00
1.2214105e+01 6.4724442e+00 6.2683575e+00
1.2191770e+01 6.3686670e+00 6.1160611e+00
1.2176123e+01 6.2633280e+00 5.9631657e+00
1.2176123e+01 6.2633280e+00 5.9631657e+00
1.2169521e+01 6.1561144e+00 5.8112718e+00
1.2169697e+01 6.0467333e+00 5.6617246e+00
1.2176651e+01 5.9351845e+00 5.5145242e+00
1.2190384e+01 5.8214680e+00 5.3696706e+00
1.2210896e+01 5.7055839e+00 5.2271637e+00
1.2238186e+01 5.5875322e+00 5.0870036e+00
1.2238186e+01 5.5875322e+00 5.0870036e+00
1.2266660e+01 5.4677641e+00 4.9492071e+00
1.2296784e+01 5.3474857e+00 4.8122501e+00
1.2328557e+01 5.2266969e+00 4.6761326e+00
1.2361979e+01 5.1053976e+00 4.5408546e+00
1.2397051e+01 4.9835881e+00 4.4064161e+00
1.2433773e+01 4.8612681e+00 4.2728170e+00
1.2433773e+01 4.8612681e+00 4.2728170e+00
1.2469417e+01 4.7384715e+00 4.1398585e+00
1.2501391e+01 4.6129014e+00 4.0083338e+00
1.2529694e+01 4.4845578e+00 3.8782430e+00
1.2554327e+01 4.3534406e+00 3.7495862e+00
1.2575289e+01 4.2195499e+00 3.6223632e+00
1.2592580e+01 4.0828857e+00 3.4965741e+00
1.2592580e+01 4.0828857e+00 3.4965741e+00
1.2606220e+01 3.9435551e+00 3.3730450e+00
1.2613755e+01 3.8039657e+00 3.2498823e+00
1.2615185e+01 3.6641174e+00 3.1270861e+00
1.2610509e+01 3.5240103e+00 3.0046563e+00
1.2599728e+01 3.3836443e+00 2.8825929e+00
1.2582841e+01 3.2430195e+00 2.7608960e+00
1.2582841e+01 3.2430195e+00 2.7608960e+00
1.2557537e+01 3.1009152e+00 2.6412019e+00
1.2524885e+01 2.9589277e+00 2.5237976e+00
1.2484884e+01 2.8170568e+00 2.4086830e+00
1.2437534e+01 2.6753026e+00 2.2958583e+00
1.2382835e+01 2.5336651e+00 2.1853233e+00
1.2320787e+01 2.3921443e+00 2.0770781e+00
1.2320787e+01 2.3921443e+00 2.0770781e+00
1.2253053e+01 2.2546279e+00 1.9676699e+00
1.2180369e+01 2.1181054e+00 1.8603936e+00
1.2102735e+01 1.9825767e+00 1.7552491e+00
1.2020151e+01 1.8480418e+00 1.6522365e+00
1.1932617e+01 1.7145007e+00 1.5513557e+00
1.1840134e+01 1.5819535e+00 1.4526067e+00
1.1840134e+01 1.5819535e+00 1.4526067e+00
1.1737680e+01 1.4518184e+00 1.3592094e+00
1.1632903e+01 1.3224830e+00 1.2677162e+00
1.1525804e+01 1.1939475e+00 1.1781270e+00
1.1416383e+01 1.0662118e+00 1.0904418e+00
1.1304640e+01 9.3927591e-01 1.0046606e+00
1.1190574e+01 8.1313983e-01 9.2078347e-01
1.1190574e+01 8.1313983e-01 9.2078347e-01
1.1078009e+01 6.8302468e-01 8.3629437e-01
1.0965159e+01 5.5347481e-01 7.5247721e-01
1.0852023e+01 4.2449020e-01 6.6933199e-01
1.0738601e+01 2.9607087e-01 5.8685870e-01
1.0624893e+01 1.6821680e-01 5.0505735e-01
1.0510900e+01 4.0928000e-02 4.2392793e-01
4.6047900e+00 6.6743921e+00 1.1741106e+01
4.5540120e+00 6.6203175e+00 1.1564785e+01
4.5014586e+00 6.5593734e+00 1.1391841e+01
4.4471298e+00 6.4915595e+00 1.1222277e+01
4.3910257e+00 6.4168761e+00 1.1056091e+01
4.3331461e+00 6.3353230e+00 1.0893283e+01
4.2734912e+00 6.2469003e+00 1.0733855e+01
4.2734912e+00 6.2469003e+00 1.0733855e+01
4.2283296e+00 6.1802609e+00 1.0560315e+01
4.1885341e+00 6.1114685e+00 1.0386775e+01
4.1541046e+00 6.0405231e+00 1.0213234e+01
4.1250412e+00 5.9674247e+00 1.0039692e+01
4.1013438e+00 5.8921733e+00 9.8661499e+00
4.0830126e+00 5.8147689e+00 9.6926072e+00
4.0830126e+00 5.8147689e+00 9.6926072e+00
4.0716401e+00 5.7338757e+00 9.5194111e+00
4.0670417e+00 5.6495728e+00 9.3486137e+00
4.0692176e+00 5.5618600e+00 9.1802150e+00
4.0781676e+00 5.4707373e+00 9.0142148e+00
4.0938918e+00 5.3762048e+00 8.8506134e+00
4.1163902e+00 5.2782625e+00 8.6894105e+00
4.1163902e+00 5.2782625e+00 8.6894105e+00
4.1604095e+00 5.1711190e+00 8.5361397e+00
4.2177033e+00 5.0608633e+00 8.3937259e+00
4.2882716e+00 4.9474953e+00 8.2621692e+00
4.3721143e+00 4.8310150e+00 8.1414695e+00
4.4692316e+00 4.7114225e+00 8.0316269e+00
4.5796233e+00 4.5887177e+00 7.9326414e+00
4.5796233e+00 4.5887177e+00 7.9326414e+00
4.6868899e+00 4.4676645e+00 7.8344348e+00
4.7938192e+00 4.3461841e+00 7.7365705e+00
4.9004112e+00 4.2242764e+00 7.6390485e+00
5.0066659e+00 4.1019414e+00 7.5418687e+00
5.1125834e+00 3.9791791e+00 7.4450312e+00
5.2181635e+00 3.8559896e+00 7.3485360e+00
5.2181635e+00 3.8559896e+00 7.3485360e+00
5.3239825e+00 3.7292850e+00 7.2551413e+00
5.4242791e+00 3.6000560e+00 7.1598284e+00
5.5190532e+00 3.4683027e+00 7.0625976e+00
5.6083049e+00 3.3340249e+00 6.9634486e+00
5.6920341e+00 3.1972228e+00 6.8623817e+00
5.7702409e+00 3.0578963e+00 6.7593966e+00
5.7702409e+00 3.0578963e+00 6.7593966e+00
5.8388466e+00 2.9170498e+00 6.6506508e+00
5.8962789e+00 2.7767310e+00 6.5368293e+00
5.9425378e+00 2.6369400e+00 6.4179321e+00
5.9776233e+00 2.4976768e+00 6.2939591e+00
6.0015354e+00 2.3589414e+00 6.1649105e+00
6.0142742e+00 2.2207338e+00 6.0307862e+00
6.0142742e+00 2.2207338e+00 6.0307862e+00
6.0112910e+00 2.0860952e+00 5.8925096e+00
5.9988739e+00 1.9531500e+00 5.7543457e+00
5.9770228e+00 1.8218982e+00 5.6162947e+00
5.9457377e+00 1.6923399e+00 5.4783564e+00
5.9050187e+00 1.5644749e+00 5.3405309e+00
5.8548656e+00 1.4383033e+00 5.2028182e+00
5.8548656e+00 1.4383033e+00 5.2028182e+00
5.7999521e+00 1.3151738e+00 5.0636140e+00
5.7416082e+00 1.1939086e+00 4.9243522e+00
5.6798340e+00 1.0745077e+00 4.7850327e+00
5.6146295e+00 9.5697106e-01 4.6456556e+00
5.5459946e+00 8.4129868e-01 4.5062207e+00
5.4739294e+00 7.2749056e-01 4.3667282e+00
5.4739294e+00 7.2749056e-01 4.3667282e+00
5.4001180e+00 6.0867773e-01 4.2319864e+00
5.3254277e+00 4.8969474e-01 4.0978947e+00
5.2498584e+00 3.7054159e-01 3.9644530e+00
5.1734101e+00 2.5121828e-01 3.8316614e+00
5.0960828e+00 1.3172482e-01 3.6995199e+00
5.0178765e+00 1.2061200e-02 3.5680285e+00
3.3870600e+00 6.4849844e+00 1.3791285e+01
3.4727786e+00 6.5971986e+00 1.3654415e+01
3.5696656e+00 6.7064115e+00 1.3526734e+01
3.6777211e+00 6.8126232e+00 1.3408242e+01
3.7969450e+00 6.9158337e+00 1.3298940e+01
3.9273374e+00 7.0160429e+00 1.3198828e+01
4.0688982e+00 7.1132509e+00 1.3107904e+01
4.0688982e+00 7.1132509e+00 1.3107904e+01
4.2392219e+00 7.1893460e+00 1.3054081e+01
4.4145258e+00 7.2543715e+00 1.3011662e+01
4.5948100e+00 7.3083274e+00 1.2980647e+01
4.7800744e+00 7.3512137e+00 1.2961035e+01
4.9703191e+00 7.3830303e+00 1.2952828e+01
5.1655440e+00 7.4037774e+00 1.2956025e+01
5.1655440e+00 7.4037774e+00 1.2956025e+01
5.3612357e+00 7.4157640e+00 1.2960270e+01
5.5529193e+00 7.4296072e+00 1.2947727e+01
5.7405948e+00 7.4453069e+00 1.2918397e+01
5.9242621e+00 7.4628633e+00 1.2872279e+01
6.1039214e+00 7.4822762e+00 1.2809374e+01
6.2795725e+00 7.5035458e+00 1.2729681e+01
6.2795725e+00 7.5035458e+00 1.2729681e+01
6.4301271e+00 7.5347378e+00 1.2609744e+01
6.5694818e+00 7.5623005e+00 1.2479450e+01
6.6976367e+00 7.5862339e+00 1.2338799e+01
6.8145917e+00 7.6065381e+00 1.2187792e+01
[...]
POINT_DATA 4361
VECTORS U float
3.7180000e+00 1.1734100e+00 -1.2548800e-02
3.7429022e+00 1.1455319e+00 1.4094667e-03
3.7658989e+00 1.1152119e+00 1.3065333e-02
3.7869900e+00 1.0824500e+00 2.2418800e-02
3.8061756e+00 1.0472462e+00 2.9469867e-02
3.8234556e+00 1.0096006e+00 3.4218533e-02
3.8388300e+00 9.6951300e-01 3.6664800e-02
3.8388300e+00 9.6951300e-01 3.6664800e-02
3.8504544e+00 9.4110456e-01 3.8626733e-02
3.8600444e+00 9.1103222e-01 3.6616867e-02
3.8676000e+00 8.7929600e-01 3.0635200e-02
3.8731211e+00 8.4589589e-01 2.0681733e-02
3.8766078e+00 8.1083189e-01 6.7564667e-03
3.8780600e+00 7.7410400e-01 -1.1140600e-02
3.8780600e+00 7.7410400e-01 -1.1140600e-02
3.8866222e+00 7.3011544e-01 -2.1571178e-02
3.8942022e+00 6.8895144e-01 -2.6330744e-02
3.9008000e+00 6.5061200e-01 -2.5419300e-02
3.9064156e+00 6.1509711e-01 -1.8836844e-02
3.9110489e+00 5.8240678e-01 -6.5833778e-03
3.9147000e+00 5.5254100e-01 1.1341100e-02
3.9147000e+00 5.5254100e-01 1.1341100e-02
3.9173311e+00 5.2350978e-01 1.6270589e-02
3.9195744e+00 4.9648111e-01 2.0238089e-02
3.9214300e+00 4.7145500e-01 2.3243600e-02
3.9228978e+00 4.4843144e-01 2.5287122e-02
3.9239778e+00 4.2741044e-01 2.6368656e-02
3.9246700e+00 4.0839200e-01 2.6488200e-02
3.9246700e+00 4.0839200e-01 2.6488200e-02
3.9243578e+00 3.9009844e-01 3.0226878e-02
3.9240811e+00 3.7318144e-01 3.2826544e-02
3.9238400e+00 3.5764100e-01 3.4287200e-02
3.9236344e+00 3.4347711e-01 3.4608844e-02
3.9234644e+00 3.3068978e-01 3.3791478e-02
3.9233300e+00 3.1927900e-01 3.1835100e-02
3.9233300e+00 3.1927900e-01 3.1835100e-02
3.9229211e+00 3.0805856e-01 3.0548517e-02
3.9218611e+00 2.9837056e-01 2.7449117e-02
3.9201500e+00 2.9021500e-01 2.2536900e-02
3.9177878e+00 2.8359189e-01 1.5811867e-02
3.9147744e+00 2.7850122e-01 7.2740167e-03
3.9111100e+00 2.7494300e-01 -3.0766500e-03
3.9111100e+00 2.7494300e-01 -3.0766500e-03
3.9066500e+00 2.7368889e-01 -1.3281461e-02
3.9006867e+00 2.7731889e-01 -2.3906878e-02
3.8932200e+00 2.8583300e-01 -3.4952900e-02
3.8842500e+00 2.9923122e-01 -4.6419528e-02
3.8737767e+00 3.1751356e-01 -5.8306761e-02
3.8618000e+00 3.4068000e-01 -7.0614600e-02
3.8618000e+00 3.4068000e-01 -7.0614600e-02
3.8419689e+00 3.9551256e-01 -8.4076333e-02
3.8245656e+00 4.4573256e-01 -9.6591133e-02
3.8095900e+00 4.9134000e-01 -1.0815900e-01
3.7970422e+00 5.3233489e-01 -1.1877993e-01
3.7869222e+00 5.6871722e-01 -1.2845393e-01
3.7792300e+00 6.0048700e-01 -1.3718100e-01
3.7792300e+00 6.0048700e-01 -1.3718100e-01
3.7590089e+00 5.8468200e-01 -1.2125367e-01
3.7369189e+00 5.6487633e-01 -1.0020040e-01
3.7129600e+00 5.4107000e-01 -7.4021200e-02
3.6871322e+00 5.1326300e-01 -4.2716067e-02
3.6594356e+00 4.8145533e-01 -6.2850000e-03
3.6298700e+00 4.4564700e-01 3.5272000e-02
3.6298700e+00 4.4564700e-01 3.5272000e-02
3.5967322e+00 4.3518378e-01 6.0607778e-02
3.5619922e+00 4.2406911e-01 8.6392778e-02
3.5256500e+00 4.1230300e-01 1.1262700e-01
3.4877056e+00 3.9988544e-01 1.3931044e-01
3.4481589e+00 3.8681644e-01 1.6644311e-01
3.4070100e+00 3.7309600e-01 1.9402500e-01
3.4070100e+00 3.7309600e-01 1.9402500e-01
3.3626389e+00 3.6796533e-01 2.1608056e-01
3.3157122e+00 3.6239267e-01 2.3675789e-01
3.2662300e+00 3.5637800e-01 2.5605700e-01
3.2141922e+00 3.4992133e-01 2.7397789e-01
3.1595989e+00 3.4302267e-01 2.9052056e-01
3.1024500e+00 3.3568200e-01 3.0568500e-01
3.1024500e+00 3.3568200e-01 3.0568500e-01
3.0492044e+00 3.2761400e-01 3.1748544e-01
2.9927678e+00 3.1896167e-01 3.2630011e-01
2.9331400e+00 3.0972500e-01 3.3212900e-01
2.8703211e+00 2.9990400e-01 3.3497211e-01
2.8043111e+00 2.8949867e-01 3.3482944e-01
2.7351100e+00 2.7850900e-01 3.3170100e-01
2.7351100e+00 2.7850900e-01 3.3170100e-01
2.6668100e+00 2.6574744e-01 3.2549667e-01
2.5999167e+00 2.5121144e-01 3.1846167e-01
2.5344300e+00 2.3490100e-01 3.1059600e-01
2.4703500e+00 2.1681611e-01 3.0189967e-01
2.4076767e+00 1.9695678e-01 2.9237267e-01
2.3464100e+00 1.7532300e-01 2.8201500e-01
2.3464100e+00 1.7532300e-01 2.8201500e-01
2.2834611e+00 1.5239539e-01 2.7121067e-01
2.2206478e+00 1.2996572e-01 2.5925000e-01
2.1579700e+00 1.0803400e-01 2.4613300e-01
2.0954278e+00 8.6600222e-02 2.3185967e-01
2.0330211e+00 6.5664389e-02 2.1643000e-01
1.9707500e+00 4.5226500e-02 1.9984400e-01
1.9707500e+00 4.5226500e-02 1.9984400e-01
1.9074056e+00 2.5758567e-02 1.8262622e-01
1.8419122e+00 5.6210000e-03 1.6610089e-01
1.7742700e+00 -1.5186200e-02 1.5026800e-01
1.7044789e+00 -3.6663033e-02 1.3512756e-01
1.6325389e+00 -5.8809500e-02 1.2067956e-01
1.5584500e+00 -8.1625600e-02 1.0692400e-01
1.5584500e+00 -8.1625600e-02 1.0692400e-01
1.4835844e+00 -1.0427489e-01 9.5375333e-02
1.4079944e+00 -1.2399669e-01 8.4222267e-02
1.3316800e+00 -1.4079100e-01 7.3464800e-02
1.2546411e+00 -1.5465782e-01 6.3102933e-02
1.1768778e+00 -1.6559716e-01 5.3136667e-02
1.0983900e+00 -1.7360900e-01 4.3566000e-02
1.0983900e+00 -1.7360900e-01 4.3566000e-02
1.0196389e+00 -1.7906644e-01 3.6437367e-02
9.4342689e-01 -1.8194311e-01 3.0958433e-02
8.6975400e-01 -1.8223900e-01 2.7129200e-02
7.9862022e-01 -1.7995411e-01 2.4949667e-02
7.3002556e-01 -1.7508844e-01 2.4419833e-02
6.6397000e-01 -1.6764200e-01 2.5539700e-02
6.6397000e-01 -1.6764200e-01 2.5539700e-02
6.0460989e-01 -1.5524898e-01 2.3727200e-02
5.4960389e-01 -1.4237064e-01 2.1950800e-02
4.9895200e-01 -1.2900700e-01 2.0210500e-02
4.5265422e-01 -1.1515804e-01 1.8506300e-02
4.1071056e-01 -1.0082378e-01 1.6838200e-02
3.7312100e-01 -8.6004200e-02 1.5206200e-02
3.7312100e-01 -8.6004200e-02 1.5206200e-02
3.3263500e-01 -7.0763473e-02 1.6385544e-02
2.9459567e-01 -5.6083573e-02 1.7735911e-02
2.5900300e-01 -4.1964500e-02 1.9257300e-02
2.2585700e-01 -2.8406253e-02 2.0949711e-02
1.9515767e-01 -1.5408833e-02 2.2813144e-02
1.6690500e-01 -2.9722400e-03 2.4847600e-02
1.6690500e-01 -2.9722400e-03 2.4847600e-02
1.4266871e-01 4.2870333e-03 2.5063433e-02
1.1948921e-01 1.1569280e-02 2.5366367e-02
9.7366500e-02 1.8874500e-02 2.5756400e-02
7.6300578e-02 2.6202693e-02 2.6233533e-02
5.6291444e-02 3.3553860e-02 2.6797767e-02
3.7339100e-02 4.0928000e-02 2.7449100e-02
3.3866700e+00 1.4628800e+00 9.6551400e-02
3.3584789e+00 1.4450367e+00 1.0775033e-01
3.3262122e+00 1.4209100e+00 1.2240853e-01
3.2898700e+00 1.3905000e+00 1.4052600e-01
3.2494522e+00 1.3538067e+00 1.6210273e-01
3.2049589e+00 1.3108300e+00 1.8713873e-01
3.1563900e+00 1.2615700e+00 2.1563400e-01
3.1563900e+00 1.2615700e+00 2.1563400e-01
3.1178222e+00 1.2352978e+00 2.3062167e-01
3.0766589e+00 1.2087211e+00 2.4455367e-01
3.0329000e+00 1.1818400e+00 2.5743000e-01
2.9865456e+00 1.1546544e+00 2.6925067e-01
2.9375956e+00 1.1271644e+00 2.8001567e-01
2.8860500e+00 1.0993700e+00 2.8972500e-01
2.8860500e+00 1.0993700e+00 2.8972500e-01
2.8287178e+00 1.0708870e+00 2.9733311e-01
2.7665244e+00 1.0411870e+00 3.0129244e-01
2.6994700e+00 1.0102700e+00 3.0160300e-01
2.6275544e+00 9.7813600e-01 2.9826478e-01
2.5507778e+00 9.4478500e-01 2.9127778e-01
2.4691400e+00 9.1021700e-01 2.8064200e-01
2.4691400e+00 9.1021700e-01 2.8064200e-01
2.3981300e+00 8.6800511e-01 2.6796122e-01
2.3342833e+00 8.2397944e-01 2.5899189e-01
2.2776000e+00 7.7814000e-01 2.5373400e-01
2.2280800e+00 7.3048678e-01 2.5218756e-01
2.1857233e+00 6.8101978e-01 2.5435256e-01
2.1505300e+00 6.2973900e-01 2.6022900e-01
2.1505300e+00 6.2973900e-01 2.6022900e-01
2.1098844e+00 5.8110089e-01 2.6139111e-01
2.0678111e+00 5.3368322e-01 2.5974278e-01
2.0243100e+00 4.8748600e-01 2.5528400e-01
1.9793811e+00 4.4250922e-01 2.4801478e-01
1.9330244e+00 3.9875289e-01 2.3793511e-01
1.8852400e+00 3.5621700e-01 2.2504500e-01
1.8852400e+00 3.5621700e-01 2.2504500e-01
1.8382000e+00 3.1221288e-01 2.1417456e-01
1.7878500e+00 2.6857921e-01 2.0214022e-01
1.7341900e+00 2.2531600e-01 1.8894200e-01
1.6772200e+00 1.8242324e-01 1.7457989e-01
1.6169400e+00 1.3990094e-01 1.5905389e-01
1.5533500e+00 9.7749100e-02 1.4236400e-01
1.5533500e+00 9.7749100e-02 1.4236400e-01
1.4837089e+00 5.8037350e-02 1.2279222e-01
1.4103189e+00 2.2872260e-02 1.0248269e-01
1.3331800e+00 -7.7461700e-03 8.1435400e-02
1.2522922e+00 -3.3817940e-02 5.9650356e-02
1.1676556e+00 -5.5343050e-02 3.7127556e-02
1.0792700e+00 -7.2321500e-02 1.3867000e-02
1.0792700e+00 -7.2321500e-02 1.3867000e-02
9.8758011e-01 -8.1115933e-02 -6.8279111e-03
8.9901778e-01 -8.6659733e-02 -2.3342744e-02
8.1358300e-01 -8.8952900e-02 -3.5677500e-02
7.3127578e-01 -8.7995433e-02 -4.3832178e-02
6.5209611e-01 -8.3787333e-02 -4.7806778e-02
5.7604400e-01 -7.6328600e-02 -4.7601300e-02
5.7604400e-01 -7.6328600e-02 -4.7601300e-02
5.0832511e-01 -6.7217678e-02 -4.7183944e-02
4.4529944e-01 -5.7435411e-02 -4.6115378e-02
3.8696700e-01 -4.6981800e-02 -4.4395600e-02
3.3332778e-01 -3.5856844e-02 -4.2024611e-02
2.8438178e-01 -2.4060544e-02 -3.9002411e-02
2.4012900e-01 -1.1592900e-02 -3.5329000e-02
2.4012900e-01 -1.1592900e-02 -3.5329000e-02
1.9853981e-01 -5.6683722e-03 -2.7332028e-02
1.5836281e-01 -5.3671556e-04 -1.8746378e-02
1.1959800e-01 3.8020700e-03 -9.5720500e-03
8.2245378e-02 7.3479844e-03 1.9095556e-04
4.6304944e-02 1.0101028e-02 1.0542639e-02
1.1776700e-02 1.2061200e-02 2.1483000e-02
3.3870600e+00 1.5152800e+00 -1.2849800e-01
3.4220811e+00 1.5244200e+00 -1.0598118e-01
3.4549078e+00 1.5291233e+00 -8.4418278e-02
3.4855400e+00 1.5293900e+00 -6.3809300e-02
3.5139778e+00 1.5252200e+00 -4.4154244e-02
3.5402211e+00 1.5166133e+00 -2.5453111e-02
3.5642700e+00 1.5035700e+00 -7.7059000e-03
3.5642700e+00 1.5035700e+00 -7.7059000e-03
3.5828000e+00 1.4752011e+00 2.5317111e-03
3.5992233e+00 1.4445511e+00 8.0940578e-03
3.6135400e+00 1.4116200e+00 8.9811400e-03
3.6257500e+00 1.3764078e+00 5.1929578e-03
3.6358533e+00 1.3389144e+00 -3.2704889e-03
3.6438500e+00 1.2991400e+00 -1.6409200e-02
3.6438500e+00 1.2991400e+00 -1.6409200e-02
3.6507600e+00 1.2553644e+00 -2.7532744e-02
3.6562933e+00 1.2183078e+00 -3.6590778e-02
3.6604500e+00 1.1879700e+00 -4.3583300e-02
3.6632300e+00 1.1643511e+00 -4.8510311e-02
3.6646333e+00 1.1474511e+00 -5.1371811e-02
3.6646600e+00 1.1372700e+00 -5.2167800e-02
3.6646600e+00 1.1372700e+00 -5.2167800e-02
3.6693722e+00 1.1450100e+00 -4.5796967e-02
3.6757556e+00 1.1520633e+00 -3.9333200e-02
3.6838100e+00 1.1584300e+00 -3.2776500e-02
3.6935356e+00 1.1641100e+00 -2.6126867e-02
3.7049322e+00 1.1691033e+00 -1.9384300e-02
3.7180000e+00 1.1734100e+00 -1.2548800e-02
3.3335500e+00 1.4867600e+00 -6.3336500e-03
3.3464533e+00 1.4902411e+00 2.2415983e-02
3.3577367e+00 1.4907378e+00 4.6524767e-02
3.3674000e+00 1.4882500e+00 6.5992700e-02
3.3754433e+00 1.4827778e+00 8.0819783e-02
3.3818667e+00 1.4743211e+00 9.1006017e-02
3.3866700e+00 1.4628800e+00 9.6551400e-02
3.7792300e+00 6.0048700e-01 -1.3718100e-01
3.7271478e+00 5.3895389e-01 -1.3119013e-01
3.6720944e+00 4.7913956e-01 -1.2249380e-01
3.6140700e+00 4.2104400e-01 -1.1109200e-01
3.5530744e+00 3.6466722e-01 -9.6984733e-02
3.4891078e+00 3.1000922e-01 -8.0172000e-02
3.4221700e+00 2.5707000e-01 -6.0653800e-02
3.4221700e+00 2.5707000e-01 -6.0653800e-02
3.3807111e+00 2.1978071e-01 -4.7347211e-02
3.3370011e+00 1.8649971e-01 -3.1768778e-02
3.2910400e+00 1.5722700e-01 -1.3918500e-02
3.2428278e+00 1.3196258e-01 6.2036222e-03
3.1923644e+00 1.1070644e-01 2.8597589e-02
3.1396500e+00 9.3458600e-02 5.3263400e-02
3.1396500e+00 9.3458600e-02 5.3263400e-02
3.0795533e+00 7.5966611e-02 7.5755667e-02
3.0190633e+00 6.0252011e-02 9.5071867e-02
2.9581800e+00 4.6314800e-02 1.1121200e-01
2.8969033e+00 3.4154978e-02 1.2417607e-01
2.8352333e+00 2.3772544e-02 1.3396407e-01
2.7731700e+00 1.5167500e-02 1.4057600e-01
2.7731700e+00 1.5167500e-02 1.4057600e-01
2.7054522e+00 8.0534333e-03 1.4132561e-01
2.6381722e+00 2.0543000e-03 1.3899794e-01
2.5713300e+00 -2.8299000e-03 1.3359300e-01
2.5049256e+00 -6.5991667e-03 1.2511078e-01
2.4389589e+00 -9.2535000e-03 1.1355128e-01
2.3734300e+00 -1.0792900e-02 9.8914500e-02
2.3734300e+00 -1.0792900e-02 9.8914500e-02
2.3158178e+00 -8.5721294e-03 8.7406100e-02
2.2599211e+00 -5.2128271e-03 7.5649300e-02
2.2057400e+00 -7.1499300e-04 6.3644100e-02
2.1532744e+00 4.9213729e-03 5.1390500e-02
2.1025244e+00 1.1696271e-02 3.8888500e-02
2.0534900e+00 1.9609700e-02 2.6138100e-02
2.0534900e+00 1.9609700e-02 2.6138100e-02
2.0041989e+00 2.5940033e-02 1.1529089e-02
1.9547189e+00 3.2889367e-02 -3.1484111e-03
1.9050500e+00 4.0457700e-02 -1.7894400e-02
1.8551922e+00 4.8645033e-02 -3.2708878e-02
1.8051456e+00 5.7451367e-02 -4.7591844e-02
1.7549100e+00 6.6876700e-02 -6.2543300e-02
1.7549100e+00 6.6876700e-02 -6.2543300e-02
1.7070567e+00 7.4809944e-02 -7.6338278e-02
1.6568833e+00 8.4150578e-02 -8.8852511e-02
1.6043900e+00 9.4898600e-02 -1.0008600e-01
1.5495767e+00 1.0705401e-01 -1.1003874e-01
1.4924433e+00 1.2061681e-01 -1.1871074e-01
1.4329900e+00 1.3558700e-01 -1.2610200e-01
1.4329900e+00 1.3558700e-01 -1.2610200e-01
1.3681267e+00 1.5374078e-01 -1.3231967e-01
1.3023833e+00 1.6903544e-01 -1.3711933e-01
1.2357600e+00 1.8147100e-01 -1.4050100e-01
1.1682567e+00 1.9104744e-01 -1.4246467e-01
1.0998733e+00 1.9776478e-01 -1.4301033e-01
1.0306100e+00 2.0162300e-01 -1.4213800e-01
1.0306100e+00 2.0162300e-01 -1.4213800e-01
9.5483733e-01 2.0263533e-01 -1.4015222e-01
8.8167033e-01 2.0133167e-01 -1.3473489e-01
8.1110900e-01 1.9771200e-01 -1.2588600e-01
7.4315333e-01 1.9177633e-01 -1.1360556e-01
6.7780333e-01 1.8352467e-01 -9.7893556e-02
6.1505900e-01 1.7295700e-01 -7.8750000e-02
6.1505900e-01 1.7295700e-01 -7.8750000e-02
5.4638422e-01 1.6638928e-01 -4.4004056e-02
4.8024789e-01 1.5748194e-01 -1.1604989e-02
4.1665000e-01 1.4623500e-01 1.8447200e-02
3.5559056e-01 1.3264844e-01 4.6152511e-02
2.9706956e-01 1.1672228e-01 7.1510944e-02
2.4108700e-01 9.8456500e-02 9.4522500e-02
2.4108700e-01 9.8456500e-02 9.4522500e-02
2.0984820e-01 8.2556589e-02 8.1405284e-02
1.7657087e-01 6.4575856e-02 6.7060584e-02
1.4125500e-01 4.4514300e-02 5.1488400e-02
1.0390060e-01 2.2371922e-02 3.4688731e-02
6.4507667e-02 -1.8512778e-03 1.6661578e-02
2.3076200e-02 -2.8155300e-02 -2.5930600e-03
1.1334300e+01 6.8252300e-01 1.4258700e-01
1.1305767e+01 6.2140867e-01 1.6009433e-01
1.1275967e+01 5.6283200e-01 1.7710633e-01
1.1244900e+01 5.0679300e-01 1.9362300e-01
1.1212567e+01 4.5329167e-01 2.0964433e-01
1.1178967e+01 4.0232800e-01 2.2517033e-01
1.1144100e+01 3.5390200e-01 2.4020100e-01
1.1144100e+01 3.5390200e-01 2.4020100e-01
1.1111689e+01 3.1816700e-01 2.5269156e-01
1.1077556e+01 2.9158100e-01 2.6368289e-01
1.1041700e+01 2.7414400e-01 2.7317500e-01
1.1004122e+01 2.6585600e-01 2.8116789e-01
1.0964822e+01 2.6671700e-01 2.8766156e-01
1.0923800e+01 2.7672700e-01 2.9265600e-01
1.0923800e+01 2.7672700e-01 2.9265600e-01
1.0885867e+01 2.8419178e-01 2.9444111e-01
1.0845700e+01 2.9317511e-01 2.9620711e-01
1.0803300e+01 3.0367700e-01 2.9795400e-01
1.0758667e+01 3.1569744e-01 2.9968178e-01
1.0711800e+01 3.2923644e-01 3.0139044e-01
1.0662700e+01 3.4429400e-01 3.0308000e-01
1.0662700e+01 3.4429400e-01 3.0308000e-01
1.0596678e+01 3.6561467e-01 3.0975222e-01
1.0532911e+01 3.7664867e-01 3.1613722e-01
1.0471400e+01 3.7739600e-01 3.2223500e-01
1.0412144e+01 3.6785667e-01 3.2804556e-01
1.0355144e+01 3.4803067e-01 3.3356889e-01
1.0300400e+01 3.1791800e-01 3.3880500e-01
1.0300400e+01 3.1791800e-01 3.3880500e-01
1.0255456e+01 2.8171996e-01 3.3345989e-01
1.0212789e+01 2.4514662e-01 3.2495456e-01
1.0172400e+01 2.0819800e-01 3.1328900e-01
1.0134289e+01 1.7087409e-01 2.9846322e-01
1.0098456e+01 1.3317489e-01 2.8047722e-01
1.0064900e+01 9.5100400e-02 2.5933100e-01
1.0064900e+01 9.5100400e-02 2.5933100e-01
1.0028466e+01 1.3659556e-01 2.6338822e-01
9.9879089e+00 1.7590776e-01 2.6582922e-01
9.9432300e+00 2.1303700e-01 2.6665400e-01
9.8944289e+00 2.4798329e-01 2.6586256e-01
9.8415056e+00 2.8074662e-01 2.6345489e-01
9.7844600e+00 3.1132700e-01 2.5943100e-01
9.7844600e+00 3.1132700e-01 2.5943100e-01
9.7266989e+00 3.3349100e-01 2.4603933e-01
9.6706589e+00 3.4749967e-01 2.2944233e-01
9.6163400e+00 3.5335300e-01 2.0964000e-01
9.5637422e+00 3.5105100e-01 1.8663233e-01
9.5128656e+00 3.4059367e-01 1.6041933e-01
9.4637100e+00 3.2198100e-01 1.3100100e-01
9.4637100e+00 3.2198100e-01 1.3100100e-01
9.4160300e+00 2.9219844e-01 1.0869996e-01
9.3654233e+00 2.6234811e-01 8.5575256e-02
9.3118900e+00 2.3243000e-01 6.1626900e-02
9.2554300e+00 2.0244411e-01 3.6854889e-02
9.1960433e+00 1.7239044e-01 1.1259222e-02
9.1337300e+00 1.4226900e-01 -1.5160100e-02
9.1337300e+00 1.4226900e-01 -1.5160100e-02
9.0613967e+00 1.1772672e-01 -4.5624889e-02
8.9865600e+00 1.0213669e-01 -7.2379756e-02
8.9092200e+00 9.5498900e-02 -9.5424700e-02
8.8293767e+00 9.7813356e-02 -1.1475972e-01
8.7470300e+00 1.0908006e-01 -1.3038482e-01
8.6621800e+00 1.2929900e-01 -1.4230000e-01
8.6621800e+00 1.2929900e-01 -1.4230000e-01
8.5833456e+00 1.6234356e-01 -1.4412478e-01
8.5112056e+00 1.9480089e-01 -1.4535144e-01
8.4457600e+00 2.2667100e-01 -1.4598000e-01
8.3870089e+00 2.5795389e-01 -1.4601044e-01
8.3349522e+00 2.8864956e-01 -1.4544278e-01
8.2895900e+00 3.1875800e-01 -1.4427700e-01
8.4697000e+00 3.9020400e-01 -1.9950200e-01
8.4491844e+00 3.7144244e-01 -1.9266367e-01
8.4248678e+00 3.5542244e-01 -1.8487900e-01
8.3967500e+00 3.4214400e-01 -1.7614800e-01
8.3648311e+00 3.3160711e-01 -1.6647067e-01
8.3291111e+00 3.2381178e-01 -1.5584700e-01
8.2895900e+00 3.1875800e-01 -1.4427700e-01
1.0796600e+01 7.3686400e-01 1.7685400e-01
1.0759989e+01 7.1385233e-01 1.5515991e-01
1.0721989e+01 6.9001367e-01 1.3145458e-01
1.0682600e+01 6.6534800e-01 1.0573800e-01
1.0641822e+01 6.3985533e-01 7.8010178e-02
1.0599656e+01 6.1353567e-01 4.8271111e-02
1.0556100e+01 5.8638900e-01 1.6520800e-02
1.0556100e+01 5.8638900e-01 1.6520800e-02
1.0510589e+01 5.4950833e-01 -1.7198456e-02
1.0466222e+01 5.1430400e-01 -4.2146089e-02
1.0423000e+01 4.8077600e-01 -5.8322100e-02
1.0380922e+01 4.4892433e-01 -6.5726489e-02
1.0339989e+01 4.1874900e-01 -6.4359256e-02
1.0300200e+01 3.9025000e-01 -5.4220400e-02
1.0300200e+01 3.9025000e-01 -5.4220400e-02
1.0247124e+01 3.8690211e-01 -1.5929333e-02
1.0191424e+01 3.8646378e-01 2.1183200e-02
1.0133100e+01 3.8893500e-01 5.7117200e-02
1.0072151e+01 3.9431578e-01 9.1872667e-02
1.0008578e+01 4.0260611e-01 1.2544960e-01
9.9423800e+00 4.1380600e-01 1.5784800e-01
9.9423800e+00 4.1380600e-01 1.5784800e-01
9.8770578e+00 4.2113700e-01 1.8656756e-01
9.8082211e+00 4.2503033e-01 2.1284589e-01
9.7358700e+00 4.2548600e-01 2.3668300e-01
9.6600044e+00 4.2250400e-01 2.5807889e-01
9.5806244e+00 4.1608433e-01 2.7703356e-01
9.4977300e+00 4.0622700e-01 2.9354700e-01
9.4977300e+00 4.0622700e-01 2.9354700e-01
9.4052711e+00 3.7812733e-01 2.6750392e-01
9.3098678e+00 3.5902333e-01 2.3148826e-01
9.2115200e+00 3.4891500e-01 1.8550000e-01
9.1102278e+00 3.4780233e-01 1.2953916e-01
9.0059911e+00 3.5568533e-01 6.3605722e-02
8.8988100e+00 3.7256400e-01 -1.2300300e-02
8.8988100e+00 3.7256400e-01 -1.2300300e-02
8.8046111e+00 3.8738511e-01 -6.7831611e-02
8.7194844e+00 3.9745378e-01 -1.1363051e-01
8.6434300e+00 4.0277000e-01 -1.4969700e-01
8.5764478e+00 4.0333378e-01 -1.7603108e-01
8.5185378e+00 3.9914511e-01 -1.9263274e-01
8.4697000e+00 3.9020400e-01 -1.9950200e-01
6.3242800e+00 7.7679100e-01 -1.7444900e-01
6.3742722e+00 7.3109978e-01 -1.6043478e-01
6.4331722e+00 6.8588544e-01 -1.5016111e-01
6.5009800e+00 6.4114800e-01 -1.4362800e-01
6.5776956e+00 5.9688744e-01 -1.4083544e-01
6.6633189e+00 5.5310378e-01 -1.4178344e-01
6.7578500e+00 5.0979700e-01 -1.4647200e-01
6.7578500e+00 5.0979700e-01 -1.4647200e-01
6.8664578e+00 4.9197233e-01 -1.4595744e-01
6.9784978e+00 4.8402567e-01 -1.4366811e-01
7.0939700e+00 4.8595700e-01 -1.3960400e-01
7.2128744e+00 4.9776633e-01 -1.3376511e-01
7.3352111e+00 5.1945367e-01 -1.2615144e-01
7.4609800e+00 5.5101900e-01 -1.1676300e-01
7.4609800e+00 5.5101900e-01 -1.1676300e-01
7.5764189e+00 5.8623600e-01 -1.1532844e-01
7.6887156e+00 6.1214833e-01 -1.1595711e-01
7.7978700e+00 6.2875600e-01 -1.1864900e-01
7.9038822e+00 6.3605900e-01 -1.2340411e-01
8.0067522e+00 6.3405733e-01 -1.3022244e-01
8.1064800e+00 6.2275100e-01 -1.3910400e-01
8.1064800e+00 6.2275100e-01 -1.3910400e-01
8.1887833e+00 5.8742733e-01 -1.5127700e-01
8.2623800e+00 5.5073000e-01 -1.6260733e-01
8.3272700e+00 5.1265900e-01 -1.7309500e-01
8.3834533e+00 4.7321433e-01 -1.8274000e-01
8.4309300e+00 4.3239600e-01 -1.9154233e-01
8.4697000e+00 3.9020400e-01 -1.9950200e-01