# vtk DataFile Version 2.0
test
ASCII
DATASET POLYDATA
POINTS 4361 float
4.8669222e+00 6.9712065e+00 1.1858867e+01
4.9774900e+00 7.0308931e+00 1.1732972e+01
5.0899910e+00 7.0897030e+00 1.1608495e+01
5.2044250e+00 7.1476361e+00 1.1485436e+01
5.3207922e+00 7.2046923e+00 1.1363795e+01
5.4390925e+00 7.2608717e+00 1.1243573e+01
5.5593258e+00 7.3161744e+00 1.1124769e+01
5.5593258e+00 7.3161744e+00 1.1124769e+01
5.6833301e+00 7.3769776e+00 1.1009852e+01
5.8136003e+00 7.4362590e+00 1.0903396e+01
5.9501365e+00 7.4940185e+00 1.0805402e+01
6.0929386e+00 7.5502562e+00 1.0715869e+01
6.2420066e+00 7.6049721e+00 1.0634798e+01
6.3973406e+00 7.6581661e+00 1.0562188e+01
6.3973406e+00 7.6581661e+00 1.0562188e+01
6.5633514e+00 7.7061573e+00 1.0511129e+01
6.7314118e+00 7.7515599e+00 1.0474316e+01
6.9015220e+00 7.7943740e+00 1.0451749e+01
7.0736819e+00 7.8345997e+00 1.0443429e+01
7.2478916e+00 7.8722368e+00 1.0449354e+01
7.4241511e+00 7.9072854e+00 1.0469526e+01
7.4241511e+00 7.9072854e+00 1.0469526e+01
7.5986090e+00 7.9380608e+00 1.0493007e+01
7.7727500e+00 7.9665187e+00 1.0520250e+01
7.9465742e+00 7.9926592e+00 1.0551254e+01
8.1200815e+00 8.0164823e+00 1.0586019e+01
8.2932720e+00 8.0379879e+00 1.0624545e+01
8.4661456e+00 8.0571761e+00 1.0666833e+01
8.4661456e+00 8.0571761e+00 1.0666833e+01
8.6389676e+00 8.0742891e+00 1.0710159e+01
8.8126985e+00 8.0892137e+00 1.0749474e+01
8.9873382e+00 8.1019501e+00 1.0784778e+01
9.1628868e+00 8.1124981e+00 1.0816071e+01
9.3393441e+00 8.1208578e+00 1.0843352e+01
9.5167103e+00 8.1270292e+00 1.0866622e+01
9.5167103e+00 8.1270292e+00 1.0866622e+01
9.6968315e+00 8.1302670e+00 1.0881085e+01
9.8752412e+00 8.1313312e+00 1.0881511e+01
1.0051939e+01 8.1302217e+00 1.0867899e+01
1.0226926e+01 8.1269386e+00 1.0840249e+01
1.0400201e+01 8.1214818e+00 1.0798561e+01
1.0571765e+01 8.1138514e+00 1.0742835e+01
1.0571765e+01 8.1138514e+00 1.0742835e+01
1.0736102e+01 8.1037760e+00 1.0668921e+01
1.0892136e+01 8.0938882e+00 1.0583330e+01
1.1039867e+01 8.0841880e+00 1.0486063e+01
1.1179294e+01 8.0746755e+00 1.0377119e+01
1.1310418e+01 8.0653507e+00 1.0256499e+01
1.1433238e+01 8.0562134e+00 1.0124202e+01
1.1433238e+01 8.0562134e+00 1.0124202e+01
1.1543612e+01 8.0613185e+00 9.9835209e+00
1.1652374e+01 8.0643980e+00 9.8415804e+00
1.1759524e+01 8.0654518e+00 9.6983806e+00
1.1865060e+01 8.0644800e+00 9.5539216e+00
1.1968984e+01 8.0614825e+00 9.4082033e+00
1.2071296e+01 8.0564594e+00 9.2612257e+00
1.2071296e+01 8.0564594e+00 9.2612257e+00
1.1967891e+01 7.9856065e+00 9.1255959e+00
1.1864785e+01 7.9119870e+00 8.9914217e+00
1.1761978e+01 7.8356008e+00 8.8587031e+00
1.1659471e+01 7.7564480e+00 8.7274401e+00
1.1557262e+01 7.6745286e+00 8.5976327e+00
1.1455353e+01 7.5898426e+00 8.4692808e+00
1.1455353e+01 7.5898426e+00 8.4692808e+00
1.1353892e+01 7.5175283e+00 8.3330523e+00
1.1256360e+01 7.4442230e+00 8.1948687e+00
1.1162759e+01 7.3699267e+00 8.0547300e+00
1.1073086e+01 7.2946394e+00 7.9126362e+00
1.0987343e+01 7.2183612e+00 7.7685874e+00
1.0905530e+01 7.1410920e+00 7.6225835e+00
1.0905530e+01 7.1410920e+00 7.6225835e+00
1.0830561e+01 7.0637670e+00 7.4721927e+00
1.0763680e+01 6.9842572e+00 7.3201989e+00
1.0704889e+01 6.9025625e+00 7.1666023e+00
1.0654186e+01 6.8186829e+00 7.0114027e+00
1.0611572e+01 6.7326184e+00 6.8546001e+00
1.0577047e+01 6.6443691e+00 6.6961946e+00
1.0577047e+01 6.6443691e+00 6.6961946e+00
1.0554790e+01 6.5538119e+00 6.5371527e+00
1.0542810e+01 6.4618047e+00 6.3791158e+00
1.0541109e+01 6.3683475e+00 6.2220841e+00
1.0549685e+01 6.2734403e+00 6.0660575e+00
1.0568540e+01 6.1770831e+00 5.9110361e+00
1.0597673e+01 6.0792760e+00 5.7570197e+00
1.0597673e+01 6.0792760e+00 5.7570197e+00
1.0635293e+01 5.9806617e+00 5.6063516e+00
1.0679032e+01 5.8809268e+00 5.4587971e+00
1.0728891e+01 5.7800715e+00 5.3143562e+00
1.0784870e+01 5.6780955e+00 5.1730289e+00
1.0846968e+01 5.5749990e+00 5.0348152e+00
1.0915186e+01 5.4707820e+00 4.8997152e+00
1.0915186e+01 5.4707820e+00 4.8997152e+00
1.0986358e+01 5.3663337e+00 4.7669572e+00
1.1059113e+01 5.2609528e+00 4.6358935e+00
1.1133453e+01 5.1546393e+00 4.5065240e+00
1.1209376e+01 5.0473930e+00 4.3788488e+00
1.1286882e+01 4.9392142e+00 4.2528677e+00
1.1365973e+01 4.8301027e+00 4.1285808e+00
1.1365973e+01 4.8301027e+00 4.1285808e+00
1.1444136e+01 4.7188318e+00 4.0058209e+00
1.1519796e+01 4.6050194e+00 3.8838100e+00
1.1592953e+01 4.4886653e+00 3.7625481e+00
1.1663607e+01 4.3697696e+00 3.6420354e+00
1.1731758e+01 4.2483324e+00 3.5222717e+00
1.1797405e+01 4.1243536e+00 3.4032570e+00
1.1797405e+01 4.1243536e+00 3.4032570e+00
1.1858390e+01 3.9974768e+00 3.2842844e+00
1.1912357e+01 3.8681486e+00 3.1654861e+00
1.1959309e+01 3.7363690e+00 3.0468620e+00
1.1999243e+01 3.6021381e+00 2.9284122e+00
1.2032160e+01 3.4654557e+00 2.8101366e+00
1.2058061e+01 3.3263219e+00 2.6920353e+00
1.2058061e+01 3.3263219e+00 2.6920353e+00
1.2075922e+01 3.1836209e+00 2.5756745e+00
1.2084111e+01 3.0399619e+00 2.4609779e+00
1.2082629e+01 2.8953448e+00 2.3479455e+00
1.2071474e+01 2.7497696e+00 2.2365774e+00
1.2050648e+01 2.6032365e+00 2.1268736e+00
1.2020149e+01 2.4557453e+00 2.0188340e+00
1.2020149e+01 2.4557453e+00 2.0188340e+00
1.1978912e+01 2.3111269e+00 1.9108849e+00
1.1930481e+01 2.1676898e+00 1.8052948e+00
1.1874856e+01 2.0254339e+00 1.7020639e+00
1.1812037e+01 1.8843592e+00 1.6011922e+00
1.1742024e+01 1.7444657e+00 1.5026795e+00
1.1664818e+01 1.6057535e+00 1.4065260e+00
1.1664818e+01 1.6057535e+00 1.4065260e+00
1.1579773e+01 1.4694030e+00 1.3140029e+00
1.1491331e+01 1.3341346e+00 1.2234997e+00
1.1399493e+01 1.1999482e+00 1.1350164e+00
1.1304259e+01 1.0668439e+00 1.0485529e+00
1.1205629e+01 9.3482160e-01 9.6410931e-01
1.1103602e+01 8.0388137e-01 8.8168557e-01
1.1103602e+01 8.0388137e-01 8.8168557e-01
1.1001679e+01 6.7145716e-01 8.0071607e-01
1.0899166e+01 5.3923756e-01 7.2030718e-01
1.0796063e+01 4.0722256e-01 6.4045891e-01
1.0692369e+01 2.7541217e-01 5.6117125e-01
1.0588085e+01 1.4380638e-01 4.8244420e-01
1.0483211e+01 1.2405200e-02 4.0427777e-01
2.6204800e+00 5.8856981e+00 1.1730369e+01
2.5852186e+00 5.8424931e+00 1.1547027e+01
2.5503419e+00 5.7958366e+00 1.1364586e+01
2.5158498e+00 5.7457285e+00 1.1183046e+01
2.4817423e+00 5.6921690e+00 1.1002406e+01
2.4480195e+00 5.6351579e+00 1.0822668e+01
2.4146812e+00 5.5746953e+00 1.0643830e+01
2.4146812e+00 5.5746953e+00 1.0643830e+01
2.3901396e+00 5.5240833e+00 1.0460248e+01
2.3723874e+00 5.4713089e+00 1.0277117e+01
2.3614246e+00 5.4163721e+00 1.0094437e+01
2.3572512e+00 5.3592728e+00 9.9122059e+00
2.3598672e+00 5.3000110e+00 9.7304254e+00
2.3692726e+00 5.2385869e+00 9.5490952e+00
2.3692726e+00 5.2385869e+00 9.5490952e+00
2.3912589e+00 5.1719134e+00 9.3698145e+00
2.4230206e+00 5.1019914e+00 9.1948714e+00
2.4645576e+00 5.0288210e+00 9.0242660e+00
2.5158698e+00 4.9524020e+00 8.8579982e+00
2.5769574e+00 4.8727345e+00 8.6960680e+00
2.6478202e+00 4.7898185e+00 8.5384755e+00
2.6478202e+00 4.7898185e+00 8.5384755e+00
2.7333626e+00 4.7029446e+00 8.3899417e+00
2.8284804e+00 4.6145152e+00 8.2508292e+00
2.9331736e+00 4.5245303e+00 8.1211382e+00
3.0474421e+00 4.4329899e+00 8.0008685e+00
3.1712860e+00 4.3398941e+00 7.8900203e+00
3.3047053e+00 4.2452427e+00 7.7885934e+00
3.3047053e+00 4.2452427e+00 7.7885934e+00
3.4375367e+00 4.1509465e+00 7.6897816e+00
3.5711416e+00 4.0556191e+00 7.5932303e+00
3.7055202e+00 3.9592604e+00 7.4989395e+00
3.8406724e+00 3.8618704e+00 7.4069091e+00
3.9765981e+00 3.7634491e+00 7.3171393e+00
4.1132975e+00 3.6639966e+00 7.2296300e+00
4.1132975e+00 3.6639966e+00 7.2296300e+00
4.2514121e+00 3.5624623e+00 7.1460901e+00
4.3863417e+00 3.4583493e+00 7.0609786e+00
4.5180862e+00 3.3516577e+00 6.9742956e+00
4.6466458e+00 3.2423874e+00 6.8860410e+00
4.7720204e+00 3.1305384e+00 6.7962148e+00
4.8942099e+00 3.0161107e+00 6.7048170e+00
4.8942099e+00 3.0161107e+00 6.7048170e+00
5.0108657e+00 2.8988336e+00 6.6080012e+00
5.1178923e+00 2.7786509e+00 6.5061182e+00
5.2152898e+00 2.6555628e+00 6.3991679e+00
5.3030581e+00 2.5295692e+00 6.2871503e+00
5.3811972e+00 2.4006700e+00 6.1700656e+00
5.4497072e+00 2.2688654e+00 6.0479136e+00
5.4497072e+00 2.2688654e+00 6.0479136e+00
5.5004464e+00 2.1342966e+00 5.9193808e+00
5.5386086e+00 2.0002666e+00 5.7884336e+00
5.5641938e+00 1.8667754e+00 5.6550718e+00
5.5772021e+00 1.7338231e+00 5.5192954e+00
5.5776333e+00 1.6014096e+00 5.3811046e+00
5.5654876e+00 1.4695350e+00 5.2404992e+00
5.5654876e+00 1.4695350e+00 5.2404992e+00
5.5441029e+00 1.3420692e+00 5.0979766e+00
5.5167223e+00 1.2162919e+00 4.9554525e+00
5.4833460e+00 1.0922031e+00 4.8129269e+00
5.4439739e+00 9.6980291e-01 4.6703999e+00
5.3986060e+00 8.4909124e-01 4.5278714e+00
5.3472424e+00 7.3006811e-01 4.3853414e+00
5.3472424e+00 7.3006811e-01 4.3853414e+00
5.2940121e+00 6.0872807e-01 4.2460787e+00
5.2395345e+00 4.8746754e-01 4.1071077e+00
5.1838095e+00 3.6628650e-01 3.9684282e+00
5.1268371e+00 2.4518497e-01 3.8300403e+00
5.0686175e+00 1.2416294e-01 3.6919440e+00
5.0091504e+00 3.2204200e-03 3.5541392e+00
1.4010300e+00 5.6905644e+00 1.3887922e+01
1.4692330e+00 5.7973760e+00 1.3738017e+01
1.5498334e+00 5.9033263e+00 1.3597847e+01
1.6428311e+00 6.0084152e+00 1.3467412e+01
1.7482261e+00 6.1126428e+00 1.3346711e+01
1.8660185e+00 6.2160090e+00 1.3235745e+01
1.9962082e+00 6.3185139e+00 1.3134514e+01
1.9962082e+00 6.3185139e+00 1.3134514e+01
2.1585963e+00 6.4078582e+00 1.3074839e+01
2.3271436e+00 6.4868570e+00 1.3028954e+01
2.5018500e+00 6.5555104e+00 1.2996859e+01
2.6827155e+00 6.6138182e+00 1.2978554e+01
2.8697402e+00 6.6617806e+00 1.2974040e+01
3.0629240e+00 6.6993974e+00 1.2983316e+01
3.0629240e+00 6.6993974e+00 1.2983316e+01
3.2571580e+00 6.7303864e+00 1.2992547e+01
3.4475682e+00 6.7597936e+00 1.2983595e+01
3.6341548e+00 6.7876189e+00 1.2956460e+01
3.8169177e+00 6.8138624e+00 1.2911141e+01
3.9958569e+00 6.8385240e+00 1.2847639e+01
4.1709725e+00 6.8616038e+00 1.2765954e+01
4.1709725e+00 6.8616038e+00 1.2765954e+01
4.3165415e+00 6.8863480e+00 1.2639447e+01
4.4502796e+00 6.9085014e+00 1.2503070e+01
4.5721867e+00 6.9280639e+00 1.2356824e+01
4.6822628e+00 6.9450356e+00 1.2200708e+01
[...]
POINT_DATA 4361
VECTORS U float
1.5700200e+00 5.0835800e-01 -8.3898900e-03
1.5847522e+00 4.9654856e-01 -5.9156111e-04
1.5987822e+00 4.8353956e-01 6.3058022e-03
1.6121100e+00 4.6933100e-01 1.2302200e-02
1.6247356e+00 4.5392289e-01 1.7397632e-02
1.6366589e+00 4.3731522e-01 2.1592099e-02
1.6478800e+00 4.1950800e-01 2.4885600e-02
1.6478800e+00 4.1950800e-01 2.4885600e-02
1.6566944e+00 4.0600344e-01 2.7843778e-02
1.6645844e+00 3.9144478e-01 2.9137978e-02
1.6715500e+00 3.7583200e-01 2.8768200e-02
1.6775911e+00 3.5916511e-01 2.6734444e-02
1.6827078e+00 3.4144411e-01 2.3036711e-02
1.6869000e+00 3.2266900e-01 1.7675000e-02
1.6869000e+00 3.2266900e-01 1.7675000e-02
1.6932700e+00 3.0139156e-01 1.5317667e-02
1.6989433e+00 2.8138856e-01 1.4433667e-02
1.7039200e+00 2.6266000e-01 1.5023000e-02
1.7082000e+00 2.4520589e-01 1.7085667e-02
1.7117833e+00 2.2902622e-01 2.0621667e-02
1.7146700e+00 2.1412100e-01 2.5631000e-02
1.7146700e+00 2.1412100e-01 2.5631000e-02
1.7171789e+00 1.9954911e-01 2.5683944e-02
1.7193156e+00 1.8605178e-01 2.5822611e-02
1.7210800e+00 1.7362900e-01 2.6047000e-02
1.7224722e+00 1.6228078e-01 2.6357111e-02
1.7234922e+00 1.5200711e-01 2.6752944e-02
1.7241400e+00 1.4280800e-01 2.7234500e-02
1.7241400e+00 1.4280800e-01 2.7234500e-02
1.7242856e+00 1.3415663e-01 2.8915311e-02
1.7243389e+00 1.2607330e-01 3.0636878e-02
1.7243000e+00 1.1855800e-01 3.2399200e-02
1.7241689e+00 1.1161073e-01 3.4202278e-02
1.7239456e+00 1.0523150e-01 3.6046111e-02
1.7236300e+00 9.9420300e-02 3.7930700e-02
1.7236300e+00 9.9420300e-02 3.7930700e-02
1.7233633e+00 9.3532367e-02 3.9731778e-02
1.7229500e+00 8.8484600e-02 4.0688811e-02
1.7223900e+00 8.4277000e-02 4.0801800e-02
1.7216833e+00 8.0909567e-02 4.0070744e-02
1.7208300e+00 7.8382300e-02 3.8495644e-02
1.7198300e+00 7.6695200e-02 3.6076500e-02
1.7198300e+00 7.6695200e-02 3.6076500e-02
1.7190967e+00 7.5718300e-02 3.4374186e-02
1.7168900e+00 7.6558000e-02 3.1249086e-02
1.7132100e+00 7.9214300e-02 2.6701200e-02
1.7080567e+00 8.3687200e-02 2.0730529e-02
1.7014300e+00 8.9976700e-02 1.3337072e-02
1.6933300e+00 9.8082800e-02 4.5208300e-03
1.6933300e+00 9.8082800e-02 4.5208300e-03
1.6790933e+00 1.2086456e-01 -8.5042167e-03
1.6658833e+00 1.4192029e-01 -2.0470660e-02
1.6537000e+00 1.6125000e-01 -3.1378500e-02
1.6425433e+00 1.7885369e-01 -4.1227737e-02
1.6324133e+00 1.9473136e-01 -5.0018370e-02
1.6233100e+00 2.0888300e-01 -5.7750400e-02
1.6233100e+00 2.0888300e-01 -5.7750400e-02
1.6147667e+00 2.0167800e-01 -4.9140289e-02
1.6051800e+00 1.9222100e-01 -3.8465422e-02
1.5945500e+00 1.8051200e-01 -2.5725800e-02
1.5828767e+00 1.6655100e-01 -1.0921422e-02
1.5701600e+00 1.5033800e-01 5.9477111e-03
1.5564000e+00 1.3187300e-01 2.4881600e-02
1.5564000e+00 1.3187300e-01 2.4881600e-02
1.5405722e+00 1.2683067e-01 3.7275033e-02
1.5239056e+00 1.2235600e-01 4.9272233e-02
1.5064000e+00 1.1844900e-01 6.0873200e-02
1.4880556e+00 1.1510967e-01 7.2077933e-02
1.4688722e+00 1.1233800e-01 8.2886433e-02
1.4488500e+00 1.1013400e-01 9.3298700e-02
1.4488500e+00 1.1013400e-01 9.3298700e-02
1.4285978e+00 1.1015978e-01 1.0160539e-01
1.4071344e+00 1.1004078e-01 1.0905782e-01
1.3844600e+00 1.0977700e-01 1.1565600e-01
1.3605744e+00 1.0936844e-01 1.2139992e-01
1.3354778e+00 1.0881511e-01 1.2628959e-01
1.3091700e+00 1.0811700e-01 1.3032500e-01
1.3091700e+00 1.0811700e-01 1.3032500e-01
1.2827544e+00 1.0702144e-01 1.3298444e-01
1.2567378e+00 1.0545344e-01 1.3426211e-01
1.2311200e+00 1.0341300e-01 1.3415800e-01
1.2059011e+00 1.0090011e-01 1.3267211e-01
1.1810811e+00 9.7914778e-02 1.2980444e-01
1.1566600e+00 9.4457000e-02 1.2555500e-01
1.1566600e+00 9.4457000e-02 1.2555500e-01
1.1325822e+00 9.0294689e-02 1.2057649e-01
1.1092522e+00 8.5405022e-02 1.1553416e-01
1.0866700e+00 7.9788000e-02 1.1042800e-01
1.0648356e+00 7.3443622e-02 1.0525802e-01
1.0437489e+00 6.6371889e-02 1.0002422e-01
1.0234100e+00 5.8572800e-02 9.4726600e-02
1.0234100e+00 5.8572800e-02 9.4726600e-02
1.0031589e+00 5.0964989e-02 8.8960800e-02
9.8297756e-01 4.3432856e-02 8.2893400e-02
9.6286600e-01 3.5976400e-02 7.6524400e-02
9.4282422e-01 2.8595622e-02 6.9853800e-02
9.2285222e-01 2.1290522e-02 6.2881600e-02
9.0295000e-01 1.4061100e-02 5.5607800e-02
9.0295000e-01 1.4061100e-02 5.5607800e-02
8.8212444e-01 6.1188556e-03 4.8588622e-02
8.6031744e-01 -2.2610778e-03 4.1577056e-02
8.3752900e-01 -1.1078700e-02 3.4573100e-02
8.1375911e-01 -2.0334011e-02 2.7576756e-02
7.8900778e-01 -3.0027011e-02 2.0588022e-02
7.6327500e-01 -4.0157700e-02 1.3606900e-02
7.6327500e-01 -4.0157700e-02 1.3606900e-02
7.3575389e-01 -5.0353211e-02 6.6147944e-03
7.0659689e-01 -5.9813778e-02 -1.7390889e-04
6.7580400e-01 -6.8539400e-02 -6.7592100e-03
6.4337522e-01 -7.6530078e-02 -1.3141109e-02
6.0931056e-01 -8.3785811e-02 -1.9319606e-02
5.7361000e-01 -9.0306600e-02 -2.5294700e-02
5.7361000e-01 -9.0306600e-02 -2.5294700e-02
5.3802367e-01 -9.6360778e-02 -2.9090067e-02
5.0265333e-01 -1.0090891e-01 -3.1861267e-02
4.6749900e-01 -1.0395100e-01 -3.3608300e-02
4.3256067e-01 -1.0548704e-01 -3.4331167e-02
3.9783833e-01 -1.0551704e-01 -3.4029867e-02
3.6333200e-01 -1.0404100e-01 -3.2704400e-02
3.6333200e-01 -1.0404100e-01 -3.2704400e-02
3.3046889e-01 -9.8749978e-02 -3.3057889e-02
2.9971589e-01 -9.2786244e-02 -3.3147989e-02
2.7107300e-01 -8.6149800e-02 -3.2974700e-02
2.4454022e-01 -7.8840644e-02 -3.2538022e-02
2.2011756e-01 -7.0858778e-02 -3.1837956e-02
1.9780500e-01 -6.2204200e-02 -3.0874500e-02
1.9780500e-01 -6.2204200e-02 -3.0874500e-02
1.7472802e-01 -5.3178811e-02 -2.8820967e-02
1.5302369e-01 -4.4432011e-02 -2.6480567e-02
1.3269200e-01 -3.5963800e-02 -2.3853300e-02
1.1373296e-01 -2.7774178e-02 -2.0939167e-02
9.6146556e-02 -1.9863144e-02 -1.7738167e-02
7.9932800e-02 -1.2230700e-02 -1.4250300e-02
7.9932800e-02 -1.2230700e-02 -1.4250300e-02
6.6338710e-02 -7.2804889e-03 -1.0514871e-02
5.3496710e-02 -2.6679689e-03 -6.8036644e-03
4.1406800e-02 1.6068600e-03 -3.1166800e-03
3.0068980e-02 5.5439978e-03 5.4608222e-04
1.9483250e-02 9.1434444e-03 4.1846222e-03
9.6496100e-03 1.2405200e-02 7.7989400e-03
1.4023600e+00 6.7418600e-01 8.5813600e-02
1.3896856e+00 6.6721222e-01 8.9992667e-02
1.3750956e+00 6.5737322e-01 9.5153133e-02
1.3585900e+00 6.4466900e-01 1.0129500e-01
1.3401689e+00 6.2909956e-01 1.0841827e-01
1.3198322e+00 6.1066489e-01 1.1652293e-01
1.2975800e+00 5.8936500e-01 1.2560900e-01
1.2975800e+00 5.8936500e-01 1.2560900e-01
1.2796322e+00 5.7912022e-01 1.3055522e-01
1.2605122e+00 5.6856156e-01 1.3489656e-01
1.2402200e+00 5.5768900e-01 1.3863300e-01
1.2187556e+00 5.4650256e-01 1.4176456e-01
1.1961189e+00 5.3500222e-01 1.4429122e-01
1.1723100e+00 5.2318800e-01 1.4621300e-01
1.1723100e+00 5.2318800e-01 1.4621300e-01
1.1483367e+00 5.0892467e-01 1.4773644e-01
1.1225033e+00 4.9360567e-01 1.4755011e-01
1.0948100e+00 4.7723100e-01 1.4565400e-01
1.0652567e+00 4.5980067e-01 1.4204811e-01
1.0338433e+00 4.4131467e-01 1.3673244e-01
1.0005700e+00 4.2177300e-01 1.2970700e-01
1.0005700e+00 4.2177300e-01 1.2970700e-01
9.7108311e-01 3.9983067e-01 1.2176322e-01
9.4506044e-01 3.7763133e-01 1.1609522e-01
9.2250200e-01 3.5517500e-01 1.1270300e-01
9.0340778e-01 3.3246167e-01 1.1158656e-01
8.8777778e-01 3.0949133e-01 1.1274589e-01
8.7561200e-01 2.8626400e-01 1.1618100e-01
8.7561200e-01 2.8626400e-01 1.1618100e-01
8.6053122e-01 2.6438289e-01 1.1673789e-01
8.4513356e-01 2.4311822e-01 1.1640256e-01
8.2941900e-01 2.2247000e-01 1.1517500e-01
8.1338756e-01 2.0243822e-01 1.1305522e-01
7.9703922e-01 1.8302289e-01 1.1004322e-01
7.8037400e-01 1.6422400e-01 1.0613900e-01
7.8037400e-01 1.6422400e-01 1.0613900e-01
7.6562956e-01 1.4539017e-01 1.0512340e-01
7.4991256e-01 1.2687250e-01 1.0329040e-01
7.3322300e-01 1.0867100e-01 1.0064000e-01
7.1556089e-01 9.0785667e-02 9.7172200e-02
6.9692622e-01 7.3216500e-02 9.2887000e-02
6.7731900e-01 5.5963500e-02 8.7784400e-02
6.7731900e-01 5.5963500e-02 8.7784400e-02
6.5572800e-01 3.9821156e-02 8.0142622e-02
6.3193233e-01 2.4792189e-02 7.1771556e-02
6.0593200e-01 1.0876600e-02 6.2671200e-02
5.7772700e-01 -1.9256111e-03 5.2841556e-02
5.4731733e-01 -1.3614444e-02 4.2282622e-02
5.1470300e-01 -2.4189900e-02 3.0994400e-02
5.1470300e-01 -2.4189900e-02 3.0994400e-02
4.7673544e-01 -3.2914567e-02 2.0043363e-02
4.3875244e-01 -3.9543167e-02 1.0745100e-02
4.0075400e-01 -4.4075700e-02 3.0996100e-03
3.6274011e-01 -4.6512167e-02 -2.8931067e-03
3.2471078e-01 -4.6852567e-02 -7.2330500e-03
2.8666600e-01 -4.5096900e-02 -9.9202200e-03
2.8666600e-01 -4.5096900e-02 -9.9202200e-03
2.5247589e-01 -4.0322350e-02 -1.2821367e-02
2.2041356e-01 -3.5052183e-02 -1.5015093e-02
1.9047900e-01 -2.9286400e-02 -1.6501400e-02
1.6267222e-01 -2.3025000e-02 -1.7280287e-02
1.3699322e-01 -1.6267983e-02 -1.7351753e-02
1.1344200e-01 -9.0153500e-03 -1.6715800e-02
1.1344200e-01 -9.0153500e-03 -1.6715800e-02
9.2433870e-02 -5.6180294e-03 -1.3239686e-02
7.2469570e-02 -2.7639191e-03 -9.5333789e-03
5.3549100e-02 -4.5301900e-04 -5.5968800e-03
3.5672460e-02 1.3146709e-03 -1.4301889e-03
1.8839650e-02 2.5391506e-03 2.9666944e-03
3.0506700e-03 3.2204200e-03 7.5937700e-03
1.4010300e+00 7.2086000e-01 -3.1860900e-02
1.4185356e+00 7.2459744e-01 -2.2378694e-02
1.4350756e+00 7.2603811e-01 -1.3305058e-02
1.4506500e+00 7.2518200e-01 -4.6399900e-03
1.4652589e+00 7.2202911e-01 3.6165089e-03
1.4789022e+00 7.1657944e-01 1.1464439e-02
1.4915800e+00 7.0883300e-01 1.8903800e-02
1.4915800e+00 7.0883300e-01 1.8903800e-02
1.5021744e+00 6.9371333e-01 2.3289478e-02
1.5118411e+00 6.7703667e-01 2.5386078e-02
1.5205800e+00 6.5880300e-01 2.5193600e-02
1.5283911e+00 6.3901233e-01 2.2712044e-02
1.5352744e+00 6.1766467e-01 1.7941411e-02
1.5412300e+00 5.9476000e-01 1.0881700e-02
1.5412300e+00 5.9476000e-01 1.0881700e-02
1.5466822e+00 5.6998689e-01 4.7445500e-03
1.5509422e+00 5.4849422e-01 -7.2286000e-04
1.5540100e+00 5.3028200e-01 -5.5205300e-03
1.5558856e+00 5.1535022e-01 -9.6484600e-03
1.5565689e+00 5.0369889e-01 -1.3106650e-02
1.5560600e+00 4.9532800e-01 -1.5895100e-02
1.5560600e+00 4.9532800e-01 -1.5895100e-02
1.5557867e+00 4.9662022e-01 -1.6093734e-02
1.5565533e+00 4.9826422e-01 -1.5712568e-02
1.5583600e+00 5.0026000e-01 -1.4751600e-02
1.5612067e+00 5.0260756e-01 -1.3210831e-02
1.5650933e+00 5.0530689e-01 -1.1090261e-02
1.5700200e+00 5.0835800e-01 -8.3898900e-03
1.3626900e+00 7.0565600e-01 2.4340200e-02
1.3721711e+00 7.0482211e-01 3.9557989e-02
1.3805044e+00 7.0222378e-01 5.2786889e-02
1.3876900e+00 6.9786100e-01 6.4026900e-02
1.3937278e+00 6.9173378e-01 7.3278022e-02
1.3986178e+00 6.8384211e-01 8.0540256e-02
1.4023600e+00 6.7418600e-01 8.5813600e-02
1.6233100e+00 2.0888300e-01 -5.7750400e-02
1.6079011e+00 1.8487348e-01 -5.5636867e-02
1.5919744e+00 1.6177181e-01 -5.2756467e-02
1.5755300e+00 1.3957800e-01 -4.9109200e-02
1.5585678e+00 1.1829204e-01 -4.4695067e-02
1.5410878e+00 9.7913944e-02 -3.9514067e-02
1.5230900e+00 7.8443700e-02 -3.3566200e-02
1.5230900e+00 7.8443700e-02 -3.3566200e-02
1.5133156e+00 6.6932022e-02 -3.1254932e-02
1.5019489e+00 5.6593389e-02 -2.7294632e-02
1.4889900e+00 4.7427800e-02 -2.1685300e-02
1.4744389e+00 3.9435256e-02 -1.4426936e-02
1.4582956e+00 3.2615756e-02 -5.5195389e-03
1.4405600e+00 2.6969300e-02 5.0368900e-03
1.4405600e+00 2.6969300e-02 5.0368900e-03
1.4203522e+00 2.0121481e-02 1.4480839e-02
1.3995956e+00 1.4029088e-02 2.2993376e-02
1.3782900e+00 8.6921200e-03 3.0574500e-02
1.3564356e+00 4.1105778e-03 3.7224212e-02
1.3340322e+00 2.8446111e-04 4.2942512e-02
1.3110800e+00 -2.7862300e-03 4.7729400e-02
1.3110800e+00 -2.7862300e-03 4.7729400e-02
1.2803622e+00 -5.8213611e-03 5.1264622e-02
1.2491089e+00 -8.3106511e-03 5.3259422e-02
1.2173200e+00 -1.0254100e-02 5.3713800e-02
1.1849956e+00 -1.1651708e-02 5.2627756e-02
1.1521356e+00 -1.2503474e-02 5.0001289e-02
1.1187400e+00 -1.2809400e-02 4.5834400e-02
1.1187400e+00 -1.2809400e-02 4.5834400e-02
1.0907082e+00 -1.0999059e-02 4.2620744e-02
1.0631816e+00 -8.5751356e-03 3.9087578e-02
1.0361600e+00 -5.5376300e-03 3.5234900e-02
1.0096436e+00 -1.8865422e-03 3.1062711e-02
9.8363222e-01 2.3781278e-03 2.6571011e-02
9.5812600e-01 7.2563800e-03 2.1759800e-02
9.5812600e-01 7.2563800e-03 2.1759800e-02
9.3225611e-01 1.1123133e-02 1.5799967e-02
9.0614644e-01 1.5358973e-02 9.8178400e-03
8.7979700e-01 1.9963900e-02 3.8134200e-03
8.5320778e-01 2.4937913e-02 -2.2132933e-03
8.2637878e-01 3.0281013e-02 -8.2623000e-03
7.9931000e-01 3.5993200e-02 -1.4333600e-02
7.9931000e-01 3.5993200e-02 -1.4333600e-02
7.7447267e-01 4.0601978e-02 -1.9998478e-02
7.4780800e-01 4.6075778e-02 -2.4844644e-02
7.1931600e-01 5.2414600e-02 -2.8872100e-02
6.8899667e-01 5.9618444e-02 -3.2080844e-02
6.5685000e-01 6.7687311e-02 -3.4470878e-02
6.2287600e-01 7.6621200e-02 -3.6042200e-02
6.2287600e-01 7.6621200e-02 -3.6042200e-02
5.8366022e-01 8.8130889e-02 -3.5633189e-02
5.4547222e-01 9.7449822e-02 -3.4692022e-02
5.0831200e-01 1.0457800e-01 -3.3218700e-02
4.7217956e-01 1.0951542e-01 -3.1213222e-02
4.3707489e-01 1.1226209e-01 -2.8675589e-02
4.0299800e-01 1.1281800e-01 -2.5605800e-02
4.0299800e-01 1.1281800e-01 -2.5605800e-02
3.6631822e-01 1.1087177e-01 -2.2222291e-02
3.3180022e-01 1.0757543e-01 -1.8745624e-02
2.9944400e-01 1.0292900e-01 -1.5175800e-02
2.6924956e-01 9.6932467e-02 -1.1512818e-02
2.4121689e-01 8.9585833e-02 -7.7566778e-03
2.1534600e-01 8.0889100e-02 -3.9073800e-03
2.1534600e-01 8.0889100e-02 -3.9073800e-03
1.8974586e-01 7.2321800e-02 2.0648778e-03
1.6538052e-01 6.3684500e-02 7.5825711e-03
1.4225000e-01 5.4977200e-02 1.2645700e-02
1.2035429e-01 4.6199900e-02 1.7254264e-02
9.9693389e-02 3.7352600e-02 2.1408264e-02
8.0267300e-02 2.8435300e-02 2.5107700e-02
8.0267300e-02 2.8435300e-02 2.5107700e-02
7.0133578e-02 2.4364444e-02 2.1255513e-02
5.9546511e-02 1.9356411e-02 1.7335179e-02
4.8506100e-02 1.3411200e-02 1.3346700e-02
3.7012344e-02 6.5288111e-03 9.2900744e-03
2.5065244e-02 -1.2907556e-03 5.1653028e-03
1.2664800e-02 -1.0047500e-02 9.7238500e-04
5.1130000e+00 3.4726200e-01 1.0700900e-01
5.1035722e+00 3.1915856e-01 1.1553833e-01
5.0934356e+00 2.9207456e-01 1.2386433e-01
5.0825900e+00 2.6601000e-01 1.3198700e-01
5.0710356e+00 2.4096489e-01 1.3990633e-01
5.0587722e+00 2.1693922e-01 1.4762233e-01
5.0458000e+00 1.9393300e-01 1.5513500e-01
5.0458000e+00 1.9393300e-01 1.5513500e-01
5.0342456e+00 1.7830600e-01 1.6044700e-01
5.0223022e+00 1.6682267e-01 1.6532000e-01
5.0099700e+00 1.5948300e-01 1.6975400e-01
4.9972489e+00 1.5628700e-01 1.7374900e-01
4.9841389e+00 1.5723467e-01 1.7730500e-01
4.9706400e+00 1.6232600e-01 1.8042200e-01
4.9706400e+00 1.6232600e-01 1.8042200e-01
4.9573144e+00 1.6677744e-01 1.8276711e-01
4.9426211e+00 1.7180578e-01 1.8527044e-01
4.9265600e+00 1.7741100e-01 1.8793200e-01
4.9091311e+00 1.8359311e-01 1.9075178e-01
4.8903344e+00 1.9035211e-01 1.9372978e-01
4.8701700e+00 1.9768800e-01 1.9686600e-01
4.8701700e+00 1.9768800e-01 1.9686600e-01
4.8430300e+00 2.0624967e-01 2.0263811e-01
4.8171333e+00 2.1060800e-01 2.0822778e-01
4.7924800e+00 2.1076300e-01 2.1363500e-01
4.7690700e+00 2.0671467e-01 2.1885978e-01
4.7469033e+00 1.9846300e-01 2.2390211e-01
4.7259800e+00 1.8600800e-01 2.2876200e-01
4.7259800e+00 1.8600800e-01 2.2876200e-01
4.7094178e+00 1.7152511e-01 2.2980533e-01
4.6937344e+00 1.5658878e-01 2.2899467e-01
4.6789300e+00 1.4119900e-01 2.2633000e-01
4.6650044e+00 1.2535578e-01 2.2181133e-01
4.6519578e+00 1.0905911e-01 2.1543867e-01
4.6397900e+00 9.2309000e-02 2.0721200e-01
4.6397900e+00 9.2309000e-02 2.0721200e-01
4.6193022e+00 1.0818356e-01 2.0888044e-01
4.5970122e+00 1.2321722e-01 2.0949311e-01
4.5729200e+00 1.3741000e-01 2.0905000e-01
4.5470256e+00 1.5076189e-01 2.0755111e-01
4.5193289e+00 1.6327289e-01 2.0499644e-01
4.4898300e+00 1.7494300e-01 2.0138600e-01
4.4898300e+00 1.7494300e-01 2.0138600e-01
4.4612278e+00 1.8247267e-01 1.9303811e-01
4.4345444e+00 1.8653733e-01 1.8371811e-01
4.4097800e+00 1.8713700e-01 1.7342600e-01
4.3869344e+00 1.8427167e-01 1.6216178e-01
4.3660078e+00 1.7794133e-01 1.4992544e-01
4.3470000e+00 1.6814600e-01 1.3671700e-01
4.3470000e+00 1.6814600e-01 1.3671700e-01
4.3305256e+00 1.5458962e-01 1.2841436e-01
4.3125789e+00 1.4063896e-01 1.1943236e-01
4.2931600e+00 1.2629400e-01 1.0977100e-01
4.2722689e+00 1.1155476e-01 9.9430289e-02
4.2499056e+00 9.6421222e-02 8.8410222e-02
4.2260700e+00 8.0893400e-02 7.6710800e-02
4.2260700e+00 8.0893400e-02 7.6710800e-02
4.1966489e+00 6.6228533e-02 6.1737943e-02
4.1648056e+00 5.5483200e-02 4.8169910e-02
4.1305400e+00 4.8657400e-02 3.6006700e-02
4.0938522e+00 4.5751133e-02 2.5248313e-02
4.0547422e+00 4.6764400e-02 1.5894750e-02
4.0132100e+00 5.1697200e-02 7.9460100e-03
4.0132100e+00 5.1697200e-02 7.9460100e-03
3.9720889e+00 6.4446722e-02 4.8738689e-03
3.9347389e+00 7.6999889e-02 2.5397126e-03
3.9011600e+00 8.9356700e-02 9.4354100e-04
3.8713522e+00 1.0151716e-01 8.5354222e-05
3.8453156e+00 1.1348126e-01 -3.4847778e-05
3.8230500e+00 1.2524900e-01 5.8293500e-04
3.8962900e+00 1.6527500e-01 -2.4325500e-02
3.8895000e+00 1.5429900e-01 -2.2829882e-02
3.8805433e+00 1.4504500e-01 -2.0271948e-02
3.8694200e+00 1.3751300e-01 -1.6651700e-02
3.8561300e+00 1.3170300e-01 -1.1969137e-02
3.8406733e+00 1.2761500e-01 -6.2242583e-03
3.8230500e+00 1.2524900e-01 5.8293500e-04
4.8683600e+00 3.7762700e-01 1.0957300e-01
4.8529578e+00 3.6623200e-01 9.9361856e-02
4.8374344e+00 3.5456567e-01 8.8525722e-02
4.8217900e+00 3.4262800e-01 7.7064600e-02
4.8060244e+00 3.3041900e-01 6.4978489e-02
4.7901378e+00 3.1793867e-01 5.2267389e-02
4.7741300e+00 3.0518700e-01 3.8931300e-02
4.7741300e+00 3.0518700e-01 3.8931300e-02
4.7585844e+00 2.8933467e-01 2.5431744e-02
4.7434144e+00 2.7441767e-01 1.5373934e-02
4.7286200e+00 2.6043600e-01 8.7578700e-03
4.7142011e+00 2.4738967e-01 5.5835511e-03
4.7001578e+00 2.3527867e-01 5.8509778e-03
4.6864900e+00 2.2410300e-01 9.5601500e-03
4.6864900e+00 2.2410300e-01 9.5601500e-03
4.6654978e+00 2.1965733e-01 2.6022306e-02
4.6430644e+00 2.1673800e-01 4.2643189e-02
4.6191900e+00 2.1534500e-01 5.9422800e-02
4.5938744e+00 2.1547833e-01 7.6361139e-02
4.5671178e+00 2.1713800e-01 9.3458206e-02
4.5389200e+00 2.2032400e-01 1.1071400e-01
4.5389200e+00 2.2032400e-01 1.1071400e-01
4.5119422e+00 2.2645600e-01 1.2938189e-01
4.4837422e+00 2.3112533e-01 1.4816789e-01
4.4543200e+00 2.3433200e-01 1.6707200e-01
4.4236756e+00 2.3607600e-01 1.8609422e-01
4.3918089e+00 2.3635733e-01 2.0523456e-01
4.3587200e+00 2.3517600e-01 2.2449300e-01
4.3587200e+00 2.3517600e-01 2.2449300e-01
4.3232444e+00 2.1828067e-01 2.2011376e-01
4.2850944e+00 2.0412800e-01 2.0834342e-01
4.2442700e+00 1.9271800e-01 1.8918200e-01
4.2007711e+00 1.8405067e-01 1.6262949e-01
4.1545978e+00 1.7812600e-01 1.2868589e-01
4.1057500e+00 1.7494400e-01 8.7351200e-02
4.1057500e+00 1.7494400e-01 8.7351200e-02
4.0621233e+00 1.7565667e-01 5.6863944e-02
4.0219833e+00 1.7543967e-01 3.1126478e-02
3.9853300e+00 1.7429300e-01 1.0138800e-02
3.9521633e+00 1.7221667e-01 -6.0990889e-03
3.9224833e+00 1.6921067e-01 -1.7587189e-02
3.8962900e+00 1.6527500e-01 -2.4325500e-02
2.8527600e+00 2.9013800e-01 -3.4590500e-02
2.8809744e+00 2.6720767e-01 -2.9731922e-02
2.9142678e+00 2.4547000e-01 -2.7216256e-02
2.9526400e+00 2.2492500e-01 -2.7043500e-02
2.9960911e+00 2.0557267e-01 -2.9213656e-02
3.0446211e+00 1.8741300e-01 -3.3726722e-02
3.0982300e+00 1.7044600e-01 -4.0582700e-02
3.0982300e+00 1.7044600e-01 -4.0582700e-02
3.1520922e+00 1.6963122e-01 -4.1057122e-02
3.2048056e+00 1.7340056e-01 -3.9959089e-02
3.2563700e+00 1.8175400e-01 -3.7288600e-02
3.3067856e+00 1.9469156e-01 -3.3045656e-02
3.3560522e+00 2.1221322e-01 -2.7230256e-02
3.4041700e+00 2.3431900e-01 -1.9842400e-02
3.4041700e+00 2.3431900e-01 -1.9842400e-02
3.4485011e+00 2.5628889e-01 -1.5963327e-02
3.4934944e+00 2.7354422e-01 -1.2585410e-02
3.5391500e+00 2.8608500e-01 -9.7086500e-03
3.5854678e+00 2.9391122e-01 -7.3330467e-03
3.6324478e+00 2.9702289e-01 -5.4586000e-03
3.6800900e+00 2.9542000e-01 -4.0853100e-03
3.6800900e+00 2.9542000e-01 -4.0853100e-03
3.7266400e+00 2.7737944e-01 -5.7536722e-03
3.7689833e+00 2.5787878e-01 -8.1040356e-03
3.8071200e+00 2.3691800e-01 -1.1136400e-02
3.8410500e+00 2.1449711e-01 -1.4850766e-02
3.8707733e+00 1.9061611e-01 -1.9247132e-02
3.8962900e+00 1.6527500e-01 -2.4325500e-02
2.3657700e+00 8.4865700e-01 -2.3719300e-02