# vtk DataFile Version 2.0
test
ASCII
DATASET POLYDATA
POINTS 4361 float
6.1510122e+00 7.3767365e+00 1.1858043e+01
6.2685523e+00 7.4266250e+00 1.1736226e+01
6.3873432e+00 7.4748279e+00 1.1614999e+01
6.5073850e+00 7.5213451e+00 1.1494362e+01
6.6286777e+00 7.5661765e+00 1.1374314e+01
6.7512213e+00 7.6093223e+00 1.1254855e+01
6.8750158e+00 7.6507824e+00 1.1135987e+01
6.8750158e+00 7.6507824e+00 1.1135987e+01
7.0015456e+00 7.7020849e+00 1.1020885e+01
7.1336825e+00 7.7514420e+00 1.0912888e+01
7.2714265e+00 7.7988535e+00 1.0811995e+01
7.4147775e+00 7.8443196e+00 1.0718207e+01
7.5637355e+00 7.8878401e+00 1.0631524e+01
7.7183006e+00 7.9294151e+00 1.0551946e+01
7.7183006e+00 7.9294151e+00 1.0551946e+01
7.8862591e+00 7.9630973e+00 1.0496655e+01
8.0560429e+00 7.9950906e+00 1.0457861e+01
8.2276520e+00 8.0253950e+00 1.0435563e+01
8.4010864e+00 8.0540107e+00 1.0429763e+01
8.5763461e+00 8.0809374e+00 1.0440459e+01
8.7534311e+00 8.1061754e+00 1.0467652e+01
8.7534311e+00 8.1061754e+00 1.0467652e+01
8.9283101e+00 8.1274567e+00 1.0493490e+01
9.1028011e+00 8.1470306e+00 1.0522637e+01
9.2769042e+00 8.1648972e+00 1.0555092e+01
9.4506193e+00 8.1810565e+00 1.0590856e+01
9.6239464e+00 8.1955084e+00 1.0629929e+01
9.7968856e+00 8.2082531e+00 1.0672310e+01
9.7968856e+00 8.2082531e+00 1.0672310e+01
9.9694732e+00 8.2191200e+00 1.0717029e+01
1.0143021e+01 8.2282600e+00 1.0757165e+01
1.0317528e+01 8.2356731e+00 1.0792719e+01
1.0492996e+01 8.2413593e+00 1.0823690e+01
1.0669423e+01 8.2453185e+00 1.0850079e+01
1.0846810e+01 8.2475509e+00 1.0871885e+01
1.0846810e+01 8.2475509e+00 1.0871885e+01
1.1026812e+01 8.2469730e+00 1.0885244e+01
1.1204835e+01 8.2446903e+00 1.0883914e+01
1.1380879e+01 8.2407027e+00 1.0867896e+01
1.1554946e+01 8.2350104e+00 1.0837190e+01
1.1727035e+01 8.2276132e+00 1.0791795e+01
1.1897145e+01 8.2185112e+00 1.0731712e+01
1.1897145e+01 8.2185112e+00 1.0731712e+01
1.2059553e+01 8.2075725e+00 1.0653294e+01
1.2213368e+01 8.1988873e+00 1.0563442e+01
1.2358587e+01 8.1924557e+00 1.0462153e+01
1.2495212e+01 8.1882778e+00 1.0349430e+01
1.2623242e+01 8.1863534e+00 1.0225271e+01
1.2742678e+01 8.1866826e+00 1.0089676e+01
1.2742678e+01 8.1866826e+00 1.0089676e+01
1.2847609e+01 8.2130039e+00 9.9467991e+00
1.2951848e+01 8.2355366e+00 9.8027708e+00
1.3055394e+01 8.2542808e+00 9.6575912e+00
1.3158247e+01 8.2692365e+00 9.5112604e+00
1.3260408e+01 8.2804037e+00 9.3637784e+00
1.3361876e+01 8.2877824e+00 9.2151451e+00
1.3361876e+01 8.2877824e+00 9.2151451e+00
1.3251976e+01 8.2111414e+00 9.0843770e+00
1.3141830e+01 8.1303475e+00 8.9570788e+00
1.3031438e+01 8.0454008e+00 8.8332506e+00
1.2920799e+01 7.9563013e+00 8.7128925e+00
1.2809914e+01 7.8630489e+00 8.5960043e+00
1.2698783e+01 7.7656436e+00 8.4825860e+00
1.2698783e+01 7.7656436e+00 8.4825860e+00
1.2586406e+01 7.6894488e+00 8.3551856e+00
1.2477432e+01 7.6117725e+00 8.2261455e+00
1.2371859e+01 7.5326147e+00 8.0954658e+00
1.2269687e+01 7.4519753e+00 7.9631464e+00
1.2170918e+01 7.3698544e+00 7.8291874e+00
1.2075550e+01 7.2862520e+00 7.6935888e+00
1.2075550e+01 7.2862520e+00 7.6935888e+00
1.1985586e+01 7.2063318e+00 7.5514046e+00
1.1902899e+01 7.1240780e+00 7.4071978e+00
1.1827489e+01 7.0394905e+00 7.2609683e+00
1.1759355e+01 6.9525693e+00 7.1127161e+00
1.1698498e+01 6.8633145e+00 6.9624412e+00
1.1644917e+01 6.7717261e+00 6.8101436e+00
1.1644917e+01 6.7717261e+00 6.8101436e+00
1.1605640e+01 6.6775899e+00 6.6562340e+00
1.1574847e+01 6.5819117e+00 6.5021465e+00
1.1552539e+01 6.4846915e+00 6.3478811e+00
1.1538715e+01 6.3859293e+00 6.1934379e+00
1.1533377e+01 6.2856251e+00 6.0388167e+00
1.1536523e+01 6.1837790e+00 5.8840177e+00
1.1536523e+01 6.1837790e+00 5.8840177e+00
1.1548597e+01 6.0804824e+00 5.7312348e+00
1.1567407e+01 5.9753683e+00 5.5812623e+00
1.1592951e+01 5.8684365e+00 5.4341002e+00
1.1625231e+01 5.7596870e+00 5.2897486e+00
1.1664246e+01 5.6491199e+00 5.1482074e+00
1.1709996e+01 5.5367352e+00 5.0094766e+00
1.1709996e+01 5.5367352e+00 5.0094766e+00
1.1757941e+01 5.4233315e+00 4.8730352e+00
1.1807481e+01 5.3092441e+00 4.7377956e+00
1.1858617e+01 5.1944729e+00 4.6037576e+00
1.1911347e+01 5.0790179e+00 4.4709214e+00
1.1965672e+01 4.9628792e+00 4.3392869e+00
1.2021593e+01 4.8460568e+00 4.2088540e+00
1.2021593e+01 4.8460568e+00 4.2088540e+00
1.2076150e+01 4.7278524e+00 4.0794318e+00
1.2127357e+01 4.6068184e+00 3.9511413e+00
1.2175214e+01 4.4829548e+00 3.8239826e+00
1.2219723e+01 4.3562616e+00 3.6979557e+00
1.2260881e+01 4.2267387e+00 3.5730605e+00
1.2298690e+01 4.0943863e+00 3.4492971e+00
1.2298690e+01 4.0943863e+00 3.4492971e+00
1.2331898e+01 3.9591964e+00 3.3269429e+00
1.2358213e+01 3.8229131e+00 3.2049123e+00
1.2377635e+01 3.6855364e+00 3.0832053e+00
1.2390163e+01 3.5470662e+00 2.9618218e+00
1.2395799e+01 3.4075026e+00 2.8407618e+00
1.2394542e+01 3.2668455e+00 2.7200255e+00
1.2394542e+01 3.2668455e+00 2.7200255e+00
1.2385140e+01 3.1237971e+00 2.6014048e+00
1.2367410e+01 2.9805812e+00 2.4849607e+00
1.2341352e+01 2.8371978e+00 2.3706930e+00
1.2306965e+01 2.6936468e+00 2.2586019e+00
1.2264250e+01 2.5499283e+00 2.1486872e+00
1.2213206e+01 2.4060423e+00 2.0409490e+00
1.2213206e+01 2.4060423e+00 2.0409490e+00
1.2154370e+01 2.2661262e+00 1.9323972e+00
1.2089831e+01 2.1273317e+00 1.8261078e+00
1.2019590e+01 1.9896587e+00 1.7220806e+00
1.1943645e+01 1.8531072e+00 1.6203158e+00
1.1861998e+01 1.7176772e+00 1.5208132e+00
1.1774649e+01 1.5833687e+00 1.4235730e+00
1.1774649e+01 1.5833687e+00 1.4235730e+00
1.1678166e+01 1.4514985e+00 1.3311016e+00
1.1578964e+01 1.3205475e+00 1.2406153e+00
1.1477043e+01 1.1905158e+00 1.1521140e+00
1.1372403e+01 1.0614034e+00 1.0655978e+00
1.1265044e+01 9.3321030e-01 9.8106663e-01
1.1154965e+01 8.0593647e-01 8.9852054e-01
1.1154965e+01 8.0593647e-01 8.9852054e-01
1.1046202e+01 6.7553423e-01 8.1634888e-01
1.0937108e+01 5.4541681e-01 7.3477386e-01
1.0827682e+01 4.1558419e-01 6.5379549e-01
1.0717925e+01 2.8603639e-01 5.7341376e-01
1.0607837e+01 1.5677339e-01 4.9362867e-01
1.0497417e+01 2.7795200e-02 4.1444023e-01
3.8037400e+00 6.3780821e+00 1.1753043e+01
3.7592053e+00 6.3284998e+00 1.1573689e+01
3.7136219e+00 6.2733356e+00 1.1396593e+01
3.6669898e+00 6.2125895e+00 1.1221755e+01
3.6193090e+00 6.1462616e+00 1.1049175e+01
3.5705795e+00 6.0743519e+00 1.0878853e+01
3.5208012e+00 5.9968603e+00 1.0710789e+01
3.5208012e+00 5.9968603e+00 1.0710789e+01
3.4836240e+00 5.9370684e+00 1.0532709e+01
3.4523318e+00 5.8751014e+00 1.0354764e+01
3.4269246e+00 5.8109591e+00 1.0176956e+01
3.4074023e+00 5.7446416e+00 9.9992822e+00
3.3937650e+00 5.6761488e+00 9.8217444e+00
3.3860126e+00 5.6054809e+00 9.6443422e+00
3.3860126e+00 5.6054809e+00 9.6443422e+00
3.3876701e+00 5.5297125e+00 9.4681662e+00
3.3971651e+00 5.4504065e+00 9.2950568e+00
3.4144976e+00 5.3675630e+00 9.1250140e+00
3.4396676e+00 5.2811817e+00 8.9580376e+00
3.4726752e+00 5.1912629e+00 8.7941278e+00
3.5135202e+00 5.0978065e+00 8.6332845e+00
3.5135202e+00 5.0978065e+00 8.6332845e+00
3.5733806e+00 4.9974943e+00 8.4807432e+00
3.6455011e+00 4.8948609e+00 8.3388724e+00
3.7298816e+00 4.7899063e+00 8.2076722e+00
3.8265221e+00 4.6826304e+00 8.0871424e+00
3.9354227e+00 4.5730332e+00 7.9772832e+00
4.0565833e+00 4.4611147e+00 7.8780944e+00
4.0565833e+00 4.4611147e+00 7.8780944e+00
4.1752188e+00 4.3503927e+00 7.7800938e+00
4.2940614e+00 4.2390272e+00 7.6832452e+00
4.4131112e+00 4.1270184e+00 7.5875485e+00
4.5323682e+00 4.0143661e+00 7.4930037e+00
4.6518323e+00 3.9010705e+00 7.3996109e+00
4.7715035e+00 3.7871316e+00 7.3073700e+00
4.7715035e+00 3.7871316e+00 7.3073700e+00
4.8928047e+00 3.6703554e+00 7.2195277e+00
5.0095380e+00 3.5509444e+00 7.1296886e+00
5.1217032e+00 3.4288987e+00 7.0378526e+00
5.2293005e+00 3.3042181e+00 6.9440198e+00
5.3323297e+00 3.1769028e+00 6.8481901e+00
5.4307909e+00 3.0469526e+00 6.7503636e+00
5.4307909e+00 3.0469526e+00 6.7503636e+00
5.5208588e+00 2.9148652e+00 6.6458567e+00
5.5999177e+00 2.7818124e+00 6.5360904e+00
5.6679678e+00 2.6477943e+00 6.4210647e+00
5.7250088e+00 2.5128110e+00 6.3007795e+00
5.7710410e+00 2.3768623e+00 6.1752349e+00
5.8060642e+00 2.2399483e+00 6.0444309e+00
5.8060642e+00 2.2399483e+00 6.0444309e+00
5.8232122e+00 2.1041319e+00 5.9087741e+00
5.8295187e+00 1.9697803e+00 5.7723975e+00
5.8249838e+00 1.8368935e+00 5.6353012e+00
5.8096075e+00 1.7054717e+00 5.4974850e+00
5.7833898e+00 1.5755146e+00 5.3589491e+00
5.7463306e+00 1.4470225e+00 5.2196935e+00
5.7463306e+00 1.4470225e+00 5.2196935e+00
5.7033822e+00 1.3225436e+00 5.0786224e+00
5.6561257e+00 1.1999147e+00 4.9375649e+00
5.6045610e+00 1.0791359e+00 4.7965209e+00
5.5486883e+00 9.6020717e-01 4.6554905e+00
5.4885074e+00 8.4312849e-01 4.5144735e+00
5.4240184e+00 7.2789986e-01 4.3734701e+00
5.4240184e+00 7.2789986e-01 4.3734701e+00
5.3580087e+00 6.0829558e-01 4.2369645e+00
5.2910486e+00 4.8852975e-01 4.1009691e+00
5.2231381e+00 3.6860237e-01 3.9654840e+00
5.1542771e+00 2.4851344e-01 3.8305092e+00
5.0844657e+00 1.2826297e-01 3.6960447e+00
5.0137038e+00 7.8509400e-03 3.5620905e+00
2.5824300e+00 6.1893744e+00 1.3836831e+01
2.6618097e+00 6.2994619e+00 1.3694830e+01
2.7528300e+00 6.4073148e+00 1.3562251e+01
2.8554911e+00 6.5129332e+00 1.3439092e+01
2.9697928e+00 6.6163170e+00 1.3325354e+01
3.0957352e+00 6.7174662e+00 1.3221037e+01
3.2333182e+00 6.8163809e+00 1.3126141e+01
3.2333182e+00 6.8163809e+00 1.3126141e+01
3.4010741e+00 6.8971316e+00 1.3070195e+01
3.5742547e+00 6.9668737e+00 1.3026493e+01
3.7528600e+00 7.0256074e+00 1.2995033e+01
3.9368900e+00 7.0733325e+00 1.2975816e+01
4.1263446e+00 7.1100492e+00 1.2968841e+01
4.3212240e+00 7.1357574e+00 1.2974109e+01
4.3212240e+00 7.1357574e+00 1.2974109e+01
4.5167657e+00 7.1534572e+00 1.2979950e+01
4.7082426e+00 7.1718474e+00 1.2968388e+01
4.8956548e+00 7.1909279e+00 1.2939424e+01
5.0790021e+00 7.2106988e+00 1.2893057e+01
5.2582847e+00 7.2311601e+00 1.2829288e+01
5.4335025e+00 7.2523118e+00 1.2748115e+01
5.4335025e+00 7.2523118e+00 1.2748115e+01
5.5815649e+00 7.2807575e+00 1.2624876e+01
5.7182363e+00 7.3061198e+00 1.2491594e+01
5.8435167e+00 7.3283989e+00 1.2348269e+01
5.9574062e+00 7.3475947e+00 1.2194903e+01
[...]
POINT_DATA 4361
VECTORS U float
2.8541100e+00 9.1388800e-01 -9.2142300e-03
2.8758144e+00 8.9228044e-01 2.6630278e-03
2.8961344e+00 8.6866444e-01 1.2810571e-02
2.9150700e+00 8.4304000e-01 2.1228400e-02
2.9326211e+00 8.1540711e-01 2.7916514e-02
2.9487878e+00 7.8576578e-01 3.2874914e-02
2.9635700e+00 7.5411600e-01 3.6103600e-02
2.9635700e+00 7.5411600e-01 3.6103600e-02
2.9749100e+00 7.3111078e-01 3.8876889e-02
2.9846667e+00 7.0662778e-01 3.8629489e-02
2.9928400e+00 6.8066700e-01 3.5361400e-02
2.9994300e+00 6.5322844e-01 2.9072622e-02
3.0044367e+00 6.2431211e-01 1.9763156e-02
3.0078600e+00 5.9391800e-01 7.4330000e-03
3.0078600e+00 5.9391800e-01 7.4330000e-03
3.0161778e+00 5.5833156e-01 8.4372222e-04
3.0235744e+00 5.2491922e-01 -2.0216178e-03
3.0300500e+00 4.9368100e-01 -1.1630200e-03
3.0356044e+00 4.6461689e-01 3.4195156e-03
3.0402378e+00 4.3772689e-01 1.1725989e-02
3.0439500e+00 4.1301100e-01 2.3756400e-02
3.0439500e+00 4.1301100e-01 2.3756400e-02
3.0468800e+00 3.8894500e-01 2.6166322e-02
3.0493667e+00 3.6656367e-01 2.8209322e-02
3.0514100e+00 3.4586700e-01 2.9885400e-02
3.0530100e+00 3.2685500e-01 3.1194556e-02
3.0541667e+00 3.0952767e-01 3.2136789e-02
3.0548800e+00 2.9388500e-01 3.2712100e-02
3.0548800e+00 2.9388500e-01 3.2712100e-02
3.0547911e+00 2.7898756e-01 3.5785300e-02
3.0546611e+00 2.6511956e-01 3.8328033e-02
3.0544900e+00 2.5228100e-01 4.0340300e-02
3.0542778e+00 2.4047189e-01 4.1822100e-02
3.0540244e+00 2.2969222e-01 4.2773433e-02
3.0537300e+00 2.1994200e-01 4.3194300e-02
3.0537300e+00 2.1994200e-01 4.3194300e-02
3.0533433e+00 2.1023833e-01 4.3890256e-02
3.0525433e+00 2.0184367e-01 4.3091756e-02
3.0513300e+00 1.9475800e-01 4.0798800e-02
3.0497033e+00 1.8898133e-01 3.7011389e-02
3.0476633e+00 1.8451367e-01 3.1729522e-02
3.0452100e+00 1.8135500e-01 2.4953200e-02
3.0452100e+00 1.8135500e-01 2.4953200e-02
3.0425478e+00 1.7951478e-01 1.8747594e-02
3.0381211e+00 1.8155711e-01 1.1360344e-02
3.0319300e+00 1.8748200e-01 2.7914500e-03
3.0239744e+00 1.9728944e-01 -6.9590889e-03
3.0142544e+00 2.1097944e-01 -1.7891272e-02
3.0027700e+00 2.2855200e-01 -3.0005100e-02
3.0027700e+00 2.2855200e-01 -3.0005100e-02
2.9830900e+00 2.7254989e-01 -4.5226000e-02
2.9653567e+00 3.1305889e-01 -5.9280267e-02
2.9495700e+00 3.5007900e-01 -7.2167900e-02
2.9357300e+00 3.8361022e-01 -8.3888900e-02
2.9238367e+00 4.1365256e-01 -9.4443267e-02
2.9138900e+00 4.4020600e-01 -1.0383100e-01
2.9138900e+00 4.4020600e-01 -1.0383100e-01
2.8988522e+00 4.2721289e-01 -9.0359256e-02
2.8822256e+00 4.1058156e-01 -7.2808356e-02
2.8640100e+00 3.9031200e-01 -5.1178300e-02
2.8442056e+00 3.6640422e-01 -2.5469089e-02
2.8228122e+00 3.3885822e-01 4.3192778e-03
2.7998300e+00 3.0767400e-01 3.8186800e-02
2.7998300e+00 3.0767400e-01 3.8186800e-02
2.7730867e+00 2.9875122e-01 5.9408333e-02
2.7449767e+00 2.8990556e-01 8.0549067e-02
2.7155000e+00 2.8113700e-01 1.0160900e-01
2.6846567e+00 2.7244556e-01 1.2258813e-01
2.6524467e+00 2.6383122e-01 1.4348647e-01
2.6188700e+00 2.5529400e-01 1.6430400e-01
2.6188700e+00 2.5529400e-01 1.6430400e-01
2.5836233e+00 2.5272456e-01 1.8081733e-01
2.5463533e+00 2.4986156e-01 1.9605667e-01
2.5070600e+00 2.4670500e-01 2.1002200e-01
2.4657433e+00 2.4325489e-01 2.2271333e-01
2.4224033e+00 2.3951122e-01 2.3413067e-01
2.3770400e+00 2.3547400e-01 2.4427400e-01
2.3770400e+00 2.3547400e-01 2.4427400e-01
2.3336044e+00 2.3079944e-01 2.5206578e-01
2.2887744e+00 2.2556044e-01 2.5729278e-01
2.2425500e+00 2.1975700e-01 2.5995500e-01
2.1949311e+00 2.1338911e-01 2.6005244e-01
2.1459178e+00 2.0645678e-01 2.5758511e-01
2.0955100e+00 1.9896000e-01 2.5255300e-01
2.0955100e+00 1.9896000e-01 2.5255300e-01
2.0458867e+00 1.9011544e-01 2.4545967e-01
1.9976267e+00 1.7984644e-01 2.3799933e-01
1.9507300e+00 1.6815300e-01 2.3017200e-01
1.9051967e+00 1.5503511e-01 2.2197767e-01
1.8610267e+00 1.4049278e-01 2.1341633e-01
1.8182200e+00 1.2452600e-01 2.0448800e-01
1.8182200e+00 1.2452600e-01 2.0448800e-01
1.7747422e+00 1.0796276e-01 1.9503878e-01
1.7313456e+00 9.1724089e-02 1.8479544e-01
1.6880300e+00 7.5810000e-02 1.7375800e-01
1.6447956e+00 6.0220489e-02 1.6192644e-01
1.6016422e+00 4.4955556e-02 1.4930078e-01
1.5585700e+00 3.0015200e-02 1.3588100e-01
1.5585700e+00 3.0015200e-02 1.3588100e-01
1.5141378e+00 1.5139444e-02 1.2219956e-01
1.4678778e+00 -4.6202222e-04 1.0890842e-01
1.4197900e+00 -1.6789200e-02 9.6007600e-02
1.3698744e+00 -3.3842089e-02 8.3497089e-02
1.3181311e+00 -5.1620689e-02 7.1376889e-02
1.2645600e+00 -7.0125000e-02 5.9647000e-02
1.2645600e+00 -7.0125000e-02 5.9647000e-02
1.2092621e+00 -8.8633556e-02 4.9273278e-02
1.1524521e+00 -1.0504922e-01 3.9252278e-02
1.0941300e+00 -1.1937200e-01 2.9584000e-02
1.0342958e+00 -1.3160189e-01 2.0268444e-02
9.7294944e-01 -1.4173889e-01 1.1305611e-02
9.1009100e-01 -1.4978300e-01 2.6955000e-03
9.1009100e-01 -1.4978300e-01 2.6955000e-03
8.4724178e-01 -1.5618456e-01 -3.3596778e-03
7.8595211e-01 -1.6028956e-01 -7.8784444e-03
7.2622200e-01 -1.6209800e-01 -1.0860800e-02
6.6805144e-01 -1.6160989e-01 -1.2306744e-02
6.1144044e-01 -1.5882522e-01 -1.2216278e-02
5.5638900e-01 -1.5374400e-01 -1.0589400e-02
5.5638900e-01 -1.5374400e-01 -1.0589400e-02
5.0592711e-01 -1.4375067e-01 -1.1545500e-02
4.5906644e-01 -1.3314433e-01 -1.2335033e-02
4.1580700e-01 -1.2192500e-01 -1.2958000e-02
3.7614878e-01 -1.1009267e-01 -1.3414400e-02
3.4009178e-01 -9.7647333e-02 -1.3704233e-02
3.0763600e-01 -8.4589000e-02 -1.3827500e-02
3.0763600e-01 -8.4589000e-02 -1.3827500e-02
2.7312156e-01 -7.1083378e-02 -1.1722297e-02
2.4065689e-01 -5.8019111e-02 -9.3650300e-03
2.1024200e-01 -4.5396200e-02 -6.7557000e-03
1.8187689e-01 -3.3214644e-02 -3.8943067e-03
1.5556156e-01 -2.1474444e-02 -7.8085000e-04
1.3129600e-01 -1.0175600e-02 2.5846700e-03
1.3129600e-01 -1.0175600e-02 2.5846700e-03
1.1086179e-01 -3.2034167e-03 5.1179389e-03
9.1438589e-02 3.5112800e-03 7.6630156e-03
7.3026400e-02 9.9684900e-03 1.0219900e-02
5.5625222e-02 1.6168213e-02 1.2788592e-02
3.9235056e-02 2.2110450e-02 1.5369092e-02
2.3855900e-02 2.7795200e-02 1.7961400e-02
2.5856200e+00 1.1665700e+00 1.0848800e-01
2.5636722e+00 1.1532189e+00 1.1665467e-01
2.5383756e+00 1.1348722e+00 1.2716000e-01
2.5097300e+00 1.1115300e+00 1.4000400e-01
2.4777356e+00 1.0831922e+00 1.5518667e-01
2.4423922e+00 1.0498589e+00 1.7270800e-01
2.4037000e+00 1.0115300e+00 1.9256800e-01
2.4037000e+00 1.0115300e+00 1.9256800e-01
2.3731167e+00 9.9210533e-01 2.0301556e-01
2.3404567e+00 9.7235400e-01 2.1254356e-01
2.3057200e+00 9.5227600e-01 2.2115200e-01
2.2689067e+00 9.3187133e-01 2.2884089e-01
2.2300167e+00 9.1114000e-01 2.3561022e-01
2.1890500e+00 8.9008200e-01 2.4146000e-01
2.1890500e+00 8.9008200e-01 2.4146000e-01
2.1447478e+00 8.6672378e-01 2.4608822e-01
2.0966478e+00 8.4202078e-01 2.4773556e-01
2.0447500e+00 8.1597300e-01 2.4640200e-01
1.9890544e+00 7.8858044e-01 2.4208756e-01
1.9295611e+00 7.5984311e-01 2.3479222e-01
1.8662700e+00 7.2976100e-01 2.2451600e-01
1.8662700e+00 7.2976100e-01 2.2451600e-01
1.8111011e+00 6.9438044e-01 2.1256478e-01
1.7620811e+00 6.5797711e-01 2.0413844e-01
1.7192100e+00 6.2055100e-01 1.9923700e-01
1.6824878e+00 5.8210211e-01 1.9786044e-01
1.6519144e+00 5.4263044e-01 2.0000878e-01
1.6274900e+00 5.0213600e-01 2.0568200e-01
1.6274900e+00 5.0213600e-01 2.0568200e-01
1.5982133e+00 4.6382900e-01 2.0705011e-01
1.5680533e+00 4.2652633e-01 2.0641744e-01
1.5370100e+00 3.9022800e-01 2.0378400e-01
1.5050833e+00 3.5493400e-01 1.9914978e-01
1.4722733e+00 3.2064433e-01 1.9251478e-01
1.4385800e+00 2.8735900e-01 1.8387900e-01
1.4385800e+00 2.8735900e-01 1.8387900e-01
1.4070222e+00 2.5328329e-01 1.7856100e-01
1.3731089e+00 2.1946762e-01 1.7200033e-01
1.3368400e+00 1.8591200e-01 1.6419700e-01
1.2982156e+00 1.5261642e-01 1.5515100e-01
1.2572356e+00 1.1958089e-01 1.4486233e-01
1.2139000e+00 8.6805400e-02 1.3333100e-01
1.2139000e+00 8.6805400e-02 1.3333100e-01
1.1657211e+00 5.5852739e-02 1.1799814e-01
1.1139578e+00 2.7953649e-02 1.0174381e-01
1.0586100e+00 3.1081300e-03 8.4568000e-02
9.9967778e-01 -1.8683818e-02 6.6470711e-02
9.3716111e-01 -3.7422194e-02 4.7451944e-02
8.7106000e-01 -5.3107000e-02 2.7511700e-02
8.7106000e-01 -5.3107000e-02 2.7511700e-02
7.9950122e-01 -6.3079289e-02 9.4366111e-03
7.2966256e-01 -7.0029489e-02 -5.2909556e-03
6.6154400e-01 -7.3957600e-02 -1.6671000e-02
5.9514556e-01 -7.4863622e-02 -2.4703522e-02
5.3046722e-01 -7.2747556e-02 -2.9388522e-02
4.6750900e-01 -6.7609400e-02 -3.0726000e-02
4.6750900e-01 -6.7609400e-02 -3.0726000e-02
4.1175522e-01 -5.9847933e-02 -3.2175544e-02
3.5981689e-01 -5.1429333e-02 -3.2902678e-02
3.1169400e-01 -4.2353600e-02 -3.2907400e-02
2.6738656e-01 -3.2620733e-02 -3.2189711e-02
2.2689456e-01 -2.2230733e-02 -3.0749611e-02
1.9021800e-01 -1.1183600e-02 -2.8587100e-02
1.9021800e-01 -1.1183600e-02 -2.8587100e-02
1.5643049e-01 -6.0505211e-03 -2.2353972e-02
1.2398373e-01 -1.7017044e-03 -1.5671956e-02
9.2877700e-02 1.8628500e-03 -8.5410500e-03
6.3112411e-02 4.6431422e-03 -9.6125556e-04
3.4687861e-02 6.6391722e-03 7.0674278e-03
7.6040500e-03 7.8509400e-03 1.5545000e-02
2.5824300e+00 1.2196700e+00 -8.2952200e-02
2.6111122e+00 1.2266833e+00 -6.5565678e-02
2.6380722e+00 1.2300267e+00 -4.8901578e-02
2.6633100e+00 1.2297000e+00 -3.2959900e-02
2.6868256e+00 1.2257033e+00 -1.7740644e-02
2.7086189e+00 1.2180367e+00 -3.2438111e-03
2.7286900e+00 1.2067000e+00 1.0530600e-02
2.7286900e+00 1.2067000e+00 1.0530600e-02
2.7446522e+00 1.1829867e+00 1.8646153e-02
2.7589522e+00 1.1570533e+00 2.2925087e-02
2.7715900e+00 1.1289000e+00 2.3367400e-02
2.7825656e+00 1.0985267e+00 1.9973093e-02
2.7918789e+00 1.0659333e+00 1.2742167e-02
2.7995300e+00 1.0311200e+00 1.6746200e-03
2.7995300e+00 1.0311200e+00 1.6746200e-03
2.8062900e+00 9.9305767e-01 -7.8526333e-03
2.8116167e+00 9.6054800e-01 -1.5929507e-02
2.8155100e+00 9.3359100e-01 -2.2556000e-02
2.8179700e+00 9.1218667e-01 -2.7732113e-02
2.8189967e+00 8.9633500e-01 -3.1457847e-02
2.8185900e+00 8.8603600e-01 -3.3733200e-02
2.8185900e+00 8.8603600e-01 -3.3733200e-02
2.8208100e+00 8.9102967e-01 -3.0664974e-02
2.8245100e+00 8.9588267e-01 -2.7189441e-02
2.8296900e+00 9.0059500e-01 -2.3306600e-02
2.8363500e+00 9.0516667e-01 -1.9016451e-02
2.8444900e+00 9.0959767e-01 -1.4318994e-02
2.8541100e+00 9.1388800e-01 -9.2142300e-03
2.5325000e+00 1.1983300e+00 1.4048400e-02
2.5450978e+00 1.1994367e+00 3.8561278e-02
2.5561978e+00 1.1979833e+00 5.9564978e-02
2.5658000e+00 1.1939700e+00 7.7059500e-02
2.5739044e+00 1.1873967e+00 9.1044844e-02
2.5805111e+00 1.1782633e+00 1.0152101e-01
2.5856200e+00 1.1665700e+00 1.0848800e-01
2.9138900e+00 4.4020600e-01 -1.0383100e-01
2.8782100e+00 3.9241556e-01 -1.0000222e-01
2.8408400e+00 3.4602289e-01 -9.4273556e-02
2.8017800e+00 3.0102800e-01 -8.6645000e-02
2.7610300e+00 2.5743089e-01 -7.7116556e-02
2.7185900e+00 2.1523156e-01 -6.5688222e-02
2.6744600e+00 1.7443000e-01 -5.2360000e-02
2.6744600e+00 1.7443000e-01 -5.2360000e-02
2.6489511e+00 1.4831268e-01 -4.4515722e-02
2.6212611e+00 1.2515101e-01 -3.4317122e-02
2.5913900e+00 1.0494500e-01 -2.1764200e-02
2.5593378e+00 8.7694644e-02 -6.8569556e-03
2.5251044e+00 7.3399944e-02 1.0404611e-02
2.4886900e+00 6.2060900e-02 3.0020500e-02
2.4886900e+00 6.2060900e-02 3.0020500e-02
2.4465122e+00 4.9325208e-02 4.7978000e-02
2.4036722e+00 3.7851674e-02 6.3694400e-02
2.3601700e+00 2.7640300e-02 7.7169700e-02
2.3160056e+00 1.8691084e-02 8.8403900e-02
2.2711789e+00 1.1004028e-02 9.7397000e-02
2.2256900e+00 4.5791300e-03 1.0414900e-01
2.2256900e+00 4.5791300e-03 1.0414900e-01
2.1718356e+00 -1.0622611e-03 1.0676053e-01
2.1178422e+00 -5.7923044e-03 1.0676687e-01
2.0637100e+00 -9.6110000e-03 1.0416800e-01
2.0094389e+00 -1.2518348e-02 9.8963933e-02
1.9550289e+00 -1.4514348e-02 9.1154667e-02
1.9004800e+00 -1.5599000e-02 8.0740200e-02
1.9004800e+00 -1.5599000e-02 8.0740200e-02
1.8536822e+00 -1.3391167e-02 7.2775211e-02
1.8081022e+00 -1.0203013e-02 6.4487478e-02
1.7637400e+00 -6.0345400e-03 5.5877000e-02
1.7205956e+00 -8.8574667e-04 4.6943778e-02
1.6786689e+00 5.2433667e-03 3.7687811e-02
1.6379600e+00 1.2352800e-02 2.8109100e-02
1.6379600e+00 1.2352800e-02 2.8109100e-02
1.5968800e+00 1.7980178e-02 1.6820967e-02
1.5555600e+00 2.4154811e-02 5.4748267e-03
1.5140000e+00 3.0876700e-02 -5.9293200e-03
1.4722000e+00 3.8145844e-02 -1.7391473e-02
1.4301600e+00 4.5962244e-02 -2.8911633e-02
1.3878800e+00 5.4325900e-02 -4.0489800e-02
1.3878800e+00 5.4325900e-02 -4.0489800e-02
1.3482633e+00 6.1138333e-02 -5.1195433e-02
1.3063000e+00 6.9333600e-02 -6.0712967e-02
1.2619900e+00 7.8911700e-02 -6.9042400e-02
1.2153333e+00 8.9872633e-02 -7.6183733e-02
1.1663300e+00 1.0221640e-01 -8.2136967e-02
1.1149800e+00 1.1594300e-01 -8.6902100e-02
1.1149800e+00 1.1594300e-01 -8.6902100e-02
1.0574989e+00 1.3322889e-01 -8.9882811e-02
1.0001432e+00 1.4757622e-01 -9.1777644e-02
9.4291300e-01 1.5898500e-01 -9.2586600e-02
8.8580822e-01 1.6745522e-01 -9.2309678e-02
8.2882889e-01 1.7298689e-01 -9.0946878e-02
7.7197500e-01 1.7558000e-01 -8.8498200e-02
7.7197500e-01 1.7558000e-01 -8.8498200e-02
7.1012633e-01 1.7512422e-01 -8.5280222e-02
6.5093633e-01 1.7254656e-01 -8.0198056e-02
5.9440500e-01 1.6784700e-01 -7.3251700e-02
5.4053233e-01 1.6102556e-01 -6.4441156e-02
4.8931833e-01 1.5208222e-01 -5.3766422e-02
4.4076300e-01 1.4101700e-01 -4.1227500e-02
4.4076300e-01 1.4101700e-01 -4.1227500e-02
3.8846767e-01 1.3110706e-01 -1.9298156e-02
3.3856367e-01 1.2004072e-01 9.5301111e-04
2.9105100e-01 1.0781800e-01 1.9526000e-02
2.4592967e-01 9.4438889e-02 3.6420811e-02
2.0319967e-01 7.9903389e-02 5.1637444e-02
1.6286100e-01 6.4211500e-02 6.5175900e-02
1.6286100e-01 6.4211500e-02 6.5175900e-02
1.4284871e-01 5.4626844e-02 5.5705646e-02
1.2137574e-01 4.3241044e-02 4.5646080e-02
9.8442100e-02 3.0054100e-02 3.4997200e-02
7.4047778e-02 1.5066011e-02 2.3759007e-02
4.8192778e-02 -1.7232222e-03 1.1931501e-02
2.0877100e-02 -2.0313600e-02 -4.8531800e-04
8.9264000e+00 5.6073900e-01 1.4042000e-01
8.9062022e+00 5.1186233e-01 1.5455433e-01
8.8849322e+00 4.6500467e-01 1.6834067e-01
8.8625900e+00 4.2016600e-01 1.8177900e-01
8.8391756e+00 3.7734633e-01 1.9486933e-01
8.8146889e+00 3.3654567e-01 2.0761167e-01
8.7891300e+00 2.9776400e-01 2.2000600e-01
8.7891300e+00 2.9776400e-01 2.2000600e-01
8.7657922e+00 2.7015956e-01 2.2983767e-01
8.7412856e+00 2.4966656e-01 2.3864067e-01
8.7156100e+00 2.3628500e-01 2.4641500e-01
8.6887656e+00 2.3001489e-01 2.5316067e-01
8.6607522e+00 2.3085622e-01 2.5887767e-01
8.6315700e+00 2.3880900e-01 2.6356600e-01
8.6315700e+00 2.3880900e-01 2.6356600e-01
8.6040667e+00 2.4520833e-01 2.6611178e-01
8.5745767e+00 2.5273033e-01 2.6873678e-01
8.5431000e+00 2.6137500e-01 2.7144100e-01
8.5096367e+00 2.7114233e-01 2.7422444e-01
8.4741867e+00 2.8203233e-01 2.7708711e-01
8.4367500e+00 2.9404500e-01 2.8002900e-01
8.4367500e+00 2.9404500e-01 2.8002900e-01
8.3862311e+00 3.0985422e-01 2.8720778e-01
8.3377078e+00 3.1786822e-01 2.9414878e-01
8.2911800e+00 3.1808700e-01 3.0085200e-01
8.2466478e+00 3.1051056e-01 3.0731744e-01
8.2041111e+00 2.9513889e-01 3.1354511e-01
8.1635700e+00 2.7197200e-01 3.1953500e-01
8.1635700e+00 2.7197200e-01 3.1953500e-01
8.1307900e+00 2.4441243e-01 3.1775189e-01
8.0997133e+00 2.1639710e-01 3.1314289e-01
8.0703400e+00 1.8792600e-01 3.0570800e-01
8.0426700e+00 1.5899913e-01 2.9544722e-01
8.0167033e+00 1.2961650e-01 2.8236056e-01
7.9924400e+00 9.9778100e-02 2.6644800e-01
7.9924400e+00 9.9778100e-02 2.6644800e-01
7.9608789e+00 1.3081328e-01 2.6957189e-01
7.9260922e+00 1.6023458e-01 2.7122456e-01
7.8880800e+00 1.8804200e-01 2.7140600e-01
7.8468422e+00 2.1423554e-01 2.7011622e-01
7.8023789e+00 2.3881521e-01 2.6735522e-01
7.7546900e+00 2.6178100e-01 2.6312300e-01
7.7546900e+00 2.6178100e-01 2.6312300e-01
7.7071122e+00 2.7798611e-01 2.5101078e-01
7.6617356e+00 2.8781211e-01 2.3665611e-01
7.6185600e+00 2.9125900e-01 2.2005900e-01
7.5775856e+00 2.8832678e-01 2.0121944e-01
7.5388122e+00 2.7901544e-01 1.8013744e-01
7.5022400e+00 2.6332500e-01 1.5681300e-01
7.5022400e+00 2.6332500e-01 1.5681300e-01
7.4683344e+00 2.3942144e-01 1.4043968e-01
7.4319378e+00 2.1523044e-01 1.2315934e-01
7.3930500e+00 1.9075200e-01 1.0497200e-01
7.3516711e+00 1.6598611e-01 8.5877644e-02
7.3078011e+00 1.4093278e-01 6.5876278e-02
7.2614400e+00 1.1559200e-01 4.4967900e-02
7.2614400e+00 1.1559200e-01 4.4967900e-02
7.2061511e+00 9.3671000e-02 1.9787244e-02
7.1480011e+00 7.8873767e-02 -2.6012222e-03
7.0869900e+00 7.1200300e-02 -2.2197500e-02
7.0231178e+00 7.0650600e-02 -3.9001589e-02
6.9563844e+00 7.7224667e-02 -5.3013489e-02
6.8867900e+00 9.0922500e-02 -6.4233200e-02
6.8867900e+00 9.0922500e-02 -6.4233200e-02
6.8206678e+00 1.1626839e-01 -6.7156456e-02
6.7603511e+00 1.4111622e-01 -6.9326422e-02
6.7058400e+00 1.6546600e-01 -7.0743100e-02
6.6571344e+00 1.8931772e-01 -7.1406489e-02
6.6142344e+00 2.1267139e-01 -7.1316589e-02
6.5771400e+00 2.3552700e-01 -7.0473400e-02
6.7140600e+00 2.9790000e-01 -1.1377100e-01
6.6993289e+00 2.8147200e-01 -1.0923012e-01
6.6813622e+00 2.6745700e-01 -1.0361909e-01
6.6601600e+00 2.5585500e-01 -9.6937900e-02
6.6357222e+00 2.4666600e-01 -8.9186556e-02
6.6080489e+00 2.3989000e-01 -8.0365056e-02
6.5771400e+00 2.3552700e-01 -7.0473400e-02
8.5013500e+00 6.0596600e-01 1.6001300e-01
8.4732533e+00 5.8712444e-01 1.4260739e-01
8.4444100e+00 5.6764911e-01 1.2380372e-01
8.4148200e+00 5.4754000e-01 1.0360200e-01
8.3844833e+00 5.2679711e-01 8.2002222e-02
8.3534000e+00 5.0542044e-01 5.9004389e-02
8.3215700e+00 4.8341000e-01 3.4608500e-02
8.3215700e+00 4.8341000e-01 3.4608500e-02
8.2891989e+00 4.5454178e-01 8.9754111e-03
8.2576522e+00 4.2709978e-01 -1.0112322e-02
8.2269300e+00 4.0108400e-01 -2.2654700e-02
8.1970322e+00 3.7649444e-01 -2.8651722e-02
8.1679589e+00 3.5333111e-01 -2.8103389e-02
8.1397100e+00 3.3159400e-01 -2.1009700e-02
8.1397100e+00 3.3159400e-01 -2.1009700e-02
8.0997611e+00 3.2669411e-01 8.8047222e-03
8.0575911e+00 3.2439744e-01 3.8231822e-02
8.0132000e+00 3.2470400e-01 6.7271600e-02
7.9665878e+00 3.2761378e-01 9.5924056e-02
7.9177544e+00 3.3312678e-01 1.2418919e-01
7.8667000e+00 3.4124300e-01 1.5206700e-01
7.8667000e+00 3.4124300e-01 1.5206700e-01
7.8175844e+00 3.4984478e-01 1.7915800e-01
7.7659644e+00 3.5561678e-01 2.0516167e-01
7.7118400e+00 3.5855900e-01 2.3007800e-01
7.6552111e+00 3.5867144e-01 2.5390700e-01
7.5960778e+00 3.5595411e-01 2.7664867e-01
7.5344400e+00 3.5040700e-01 2.9830300e-01
7.5344400e+00 3.5040700e-01 2.9830300e-01
7.4650233e+00 3.2409756e-01 2.8229266e-01
7.3920200e+00 3.0450156e-01 2.5628566e-01
7.3154300e+00 2.9161900e-01 2.2028200e-01
7.2352533e+00 2.8544989e-01 1.7428169e-01
7.1514900e+00 2.8599422e-01 1.1828472e-01
7.0641400e+00 2.9325200e-01 5.2291100e-02
7.0641400e+00 2.9325200e-01 5.2291100e-02
6.9877822e+00 3.0165000e-01 4.3604444e-03
6.9186289e+00 3.0699867e-01 -3.5468756e-02
6.8566800e+00 3.0929800e-01 -6.7196500e-02
6.8019356e+00 3.0854800e-01 -9.0822789e-02
6.7543956e+00 3.0474867e-01 -1.0634762e-01
6.7140600e+00 2.9790000e-01 -1.1377100e-01
4.9704900e+00 5.6780600e-01 -1.0839300e-01
5.0132489e+00 5.3015511e-01 -9.8315178e-02
5.0636856e+00 4.9341678e-01 -9.1586711e-02
5.1218000e+00 4.5759100e-01 -8.8207600e-02
5.1875922e+00 4.2267778e-01 -8.8177844e-02
5.2610622e+00 3.8867711e-01 -9.1497444e-02
5.3422100e+00 3.5558900e-01 -9.8166400e-02
5.3422100e+00 3.5558900e-01 -9.8166400e-02
5.4314933e+00 3.4569433e-01 -9.8117200e-02
5.5219400e+00 3.4400367e-01 -9.6098667e-02
5.6135500e+00 3.5051700e-01 -9.2110800e-02
5.7063233e+00 3.6523433e-01 -8.6153600e-02
5.8002600e+00 3.8815567e-01 -7.8227067e-02
5.8953600e+00 4.1928100e-01 -6.8331200e-02
5.8953600e+00 4.1928100e-01 -6.8331200e-02
5.9823700e+00 4.5209489e-01 -6.4968078e-02
6.0681200e+00 4.7702622e-01 -6.3065778e-02
6.1526100e+00 4.9407500e-01 -6.2624300e-02
6.2358400e+00 5.0324122e-01 -6.3643644e-02
6.3178100e+00 5.0452489e-01 -6.6123811e-02
6.3985200e+00 4.9792600e-01 -7.0064800e-02
6.3985200e+00 4.9792600e-01 -7.0064800e-02
6.4690156e+00 4.6827000e-01 -7.7539444e-02
6.5323489e+00 4.3714133e-01 -8.4937978e-02
6.5885200e+00 4.0454000e-01 -9.2260400e-02
6.6375289e+00 3.7046600e-01 -9.9506711e-02
6.6793756e+00 3.3491933e-01 -1.0667691e-01
6.7140600e+00 2.9790000e-01 -1.1377100e-01