# vtk DataFile Version 2.0
test
ASCII
DATASET POLYDATA
POINTS 4361 float
5.8182722e+00 7.2737225e+00 1.1858485e+01
5.9343111e+00 7.3260965e+00 1.1735752e+01
6.0517888e+00 7.3769760e+00 1.1613826e+01
6.1707050e+00 7.4263611e+00 1.1492708e+01
6.2910600e+00 7.4742516e+00 1.1372397e+01
6.4128536e+00 7.5206477e+00 1.1252894e+01
6.5360858e+00 7.5655494e+00 1.1134198e+01
6.5360858e+00 7.5655494e+00 1.1134198e+01
6.6622434e+00 7.6191369e+00 1.1019287e+01
6.7941770e+00 7.6708663e+00 1.0911836e+01
6.9318865e+00 7.7207375e+00 1.0811844e+01
7.0753719e+00 7.7687506e+00 1.0719312e+01
7.2246333e+00 7.8149054e+00 1.0634239e+01
7.3796706e+00 7.8592021e+00 1.0556625e+01
7.3796706e+00 7.8592021e+00 1.0556625e+01
7.5473336e+00 7.8963543e+00 1.0502604e+01
7.7168607e+00 7.9315826e+00 1.0464420e+01
7.8882520e+00 7.9648870e+00 1.0442073e+01
8.0615075e+00 7.9962677e+00 1.0435564e+01
8.2366272e+00 8.0257244e+00 1.0444892e+01
8.4136111e+00 8.0532574e+00 1.0470057e+01
8.4136111e+00 8.0532574e+00 1.0470057e+01
8.5884945e+00 8.0767480e+00 1.0495118e+01
8.7629889e+00 8.0983929e+00 1.0523654e+01
8.9370942e+00 8.1181922e+00 1.0555666e+01
9.1108104e+00 8.1361458e+00 1.0591154e+01
9.2841375e+00 8.1522538e+00 1.0630117e+01
9.4570756e+00 8.1665161e+00 1.0672557e+01
9.4570756e+00 8.1665161e+00 1.0672557e+01
9.6297388e+00 8.1788768e+00 1.0716958e+01
9.8033396e+00 8.1893821e+00 1.0756970e+01
9.9778782e+00 8.1980321e+00 1.0792592e+01
1.0153355e+01 8.2048267e+00 1.0823825e+01
1.0329769e+01 8.2097660e+00 1.0850668e+01
1.0507120e+01 8.2128499e+00 1.0873122e+01
1.0507120e+01 8.2128499e+00 1.0873122e+01
1.0687138e+01 8.2130811e+00 1.0887003e+01
1.0865261e+01 8.2115010e+00 1.0886352e+01
1.1041489e+01 8.2081097e+00 1.0871169e+01
1.1215823e+01 8.2029071e+00 1.0841453e+01
1.1388261e+01 8.1958933e+00 1.0797205e+01
1.1558805e+01 8.1870682e+00 1.0738425e+01
1.1558805e+01 8.1870682e+00 1.0738425e+01
1.1721831e+01 8.1761559e+00 1.0661418e+01
1.1876249e+01 8.1670017e+00 1.0572787e+01
1.2022057e+01 8.1596057e+00 1.0472532e+01
1.2159256e+01 8.1539679e+00 1.0360653e+01
1.2287847e+01 8.1500882e+00 1.0237150e+01
1.2407828e+01 8.1479666e+00 1.0102023e+01
1.2407828e+01 8.1479666e+00 1.0102023e+01
1.2513520e+01 8.1691863e+00 9.9590222e+00
1.2618299e+01 8.1870760e+00 9.8149060e+00
1.2722164e+01 8.2016358e+00 9.6696747e+00
1.2825115e+01 8.2128656e+00 9.5233284e+00
1.2927152e+01 8.2207655e+00 9.3758671e+00
1.3028276e+01 8.2253354e+00 9.2272907e+00
1.3028276e+01 8.2253354e+00 9.2272907e+00
1.2920164e+01 8.1500222e+00 9.0954338e+00
1.2811932e+01 8.0708196e+00 8.9665557e+00
1.2703578e+01 7.9877278e+00 8.8406563e+00
1.2595104e+01 7.9007467e+00 8.7177357e+00
1.2486509e+01 7.8098763e+00 8.5977938e+00
1.2377793e+01 7.7151166e+00 8.4808306e+00
1.2377793e+01 7.7151166e+00 8.4808306e+00
1.2268081e+01 7.6397579e+00 8.3514071e+00
1.2161879e+01 7.5631360e+00 8.2202013e+00
1.2059189e+01 7.4852507e+00 8.0872134e+00
1.1960008e+01 7.4061021e+00 7.9524434e+00
1.1864339e+01 7.3256902e+00 7.8158911e+00
1.1772180e+01 7.2440150e+00 7.6775568e+00
1.1772180e+01 7.2440150e+00 7.6775568e+00
1.1685943e+01 7.1649641e+00 7.5331893e+00
1.1607182e+01 7.0836260e+00 7.3868801e+00
1.1535899e+01 7.0000005e+00 7.2386293e+00
1.1472091e+01 6.9140877e+00 7.0884367e+00
1.1415761e+01 6.8258875e+00 6.9363025e+00
1.1366907e+01 6.7354001e+00 6.7822266e+00
1.1366907e+01 6.7354001e+00 6.7822266e+00
1.1331675e+01 6.6424090e+00 6.6268378e+00
1.1305539e+01 6.5478865e+00 6.4715280e+00
1.1288499e+01 6.4518325e+00 6.3162971e+00
1.1280554e+01 6.3542471e+00 6.1611453e+00
1.1281706e+01 6.2551302e+00 6.0060725e+00
1.1291953e+01 6.1544820e+00 5.8510787e+00
1.1291953e+01 6.1544820e+00 5.8510787e+00
1.1311036e+01 6.0525577e+00 5.6984849e+00
1.1336739e+01 5.9489851e+00 5.5488254e+00
1.1369061e+01 5.8437645e+00 5.4021002e+00
1.1408003e+01 5.7368956e+00 5.2583094e+00
1.1453565e+01 5.6283785e+00 5.1174528e+00
1.1505746e+01 5.5182132e+00 4.9795306e+00
1.1505746e+01 5.5182132e+00 4.9795306e+00
1.1560417e+01 5.4072934e+00 4.8438902e+00
1.1616674e+01 5.2956156e+00 4.7095909e+00
1.1674517e+01 5.1831796e+00 4.5766326e+00
1.1733946e+01 5.0699854e+00 4.4450154e+00
1.1794961e+01 4.9560332e+00 4.3147392e+00
1.1857563e+01 4.8413228e+00 4.1858040e+00
1.1857563e+01 4.8413228e+00 4.1858040e+00
1.1918821e+01 4.7249248e+00 4.0580371e+00
1.1976921e+01 4.6057364e+00 3.9312828e+00
1.2031864e+01 4.4837578e+00 3.8055410e+00
1.2083650e+01 4.3589888e+00 3.6808119e+00
1.2132279e+01 4.2314296e+00 3.5570954e+00
1.2177750e+01 4.1010800e+00 3.4343914e+00
1.2177750e+01 4.1010800e+00 3.4343914e+00
1.2218414e+01 3.9678511e+00 3.3126966e+00
1.2252009e+01 3.8331666e+00 3.1912946e+00
1.2278535e+01 3.6970264e+00 3.0701856e+00
1.2297990e+01 3.5594305e+00 2.9493694e+00
1.2310377e+01 3.4203789e+00 2.8288460e+00
1.2315694e+01 3.2798715e+00 2.7086156e+00
1.2315694e+01 3.2798715e+00 2.7086156e+00
1.2312943e+01 3.1366302e+00 2.5905002e+00
1.2301482e+01 2.9930640e+00 2.4744712e+00
1.2281313e+01 2.8491728e+00 2.3605286e+00
1.2252434e+01 2.7049566e+00 2.2486724e+00
1.2214847e+01 2.5604154e+00 2.1389026e+00
1.2168550e+01 2.4155493e+00 2.0312191e+00
1.2168550e+01 2.4155493e+00 2.0312191e+00
1.2113659e+01 2.2745203e+00 1.9229022e+00
1.2052722e+01 2.1346525e+00 1.8168866e+00
1.1985740e+01 1.9959457e+00 1.7131720e+00
1.1912711e+01 1.8583999e+00 1.6117587e+00
1.1833637e+01 1.7220153e+00 1.5126465e+00
1.1748517e+01 1.5867917e+00 1.4158355e+00
1.1748517e+01 1.5867917e+00 1.4158355e+00
1.1654605e+01 1.4539963e+00 1.3235213e+00
1.1557815e+01 1.3221608e+00 1.2332151e+00
1.1458147e+01 1.1912851e+00 1.1449169e+00
1.1355602e+01 1.0613693e+00 1.0586266e+00
1.1250179e+01 9.3241330e-01 9.7434437e-01
1.1141878e+01 8.0441717e-01 8.9207007e-01
1.1141878e+01 8.0441717e-01 8.9207007e-01
1.1034681e+01 6.7367064e-01 8.1051108e-01
1.0927112e+01 5.4315071e-01 7.2953088e-01
1.0819171e+01 4.1285738e-01 6.4912947e-01
1.0710858e+01 2.8279066e-01 5.6930684e-01
1.0602173e+01 1.5295053e-01 4.9006299e-01
1.0493117e+01 2.3337000e-02 4.1139793e-01
3.4956700e+00 6.2564021e+00 1.1751703e+01
3.4535009e+00 6.2085144e+00 1.1571264e+01
3.4106208e+00 6.1555696e+00 1.1392693e+01
3.3670298e+00 6.0975675e+00 1.1215990e+01
3.3227279e+00 6.0345083e+00 1.1041154e+01
3.2777150e+00 5.9663919e+00 1.0868186e+01
3.2319912e+00 5.8932183e+00 1.0697086e+01
3.2319912e+00 5.8932183e+00 1.0697086e+01
3.1979529e+00 5.8359119e+00 1.0517452e+01
3.1700207e+00 5.7764242e+00 1.0338020e+01
3.1481946e+00 5.7147551e+00 1.0158792e+01
3.1324745e+00 5.6509047e+00 9.9797652e+00
3.1228605e+00 5.5848729e+00 9.8009414e+00
3.1193526e+00 5.5166599e+00 9.6223202e+00
3.1193526e+00 5.5166599e+00 9.6223202e+00
3.1262234e+00 5.4430456e+00 9.4451832e+00
3.1414217e+00 5.3659093e+00 9.2714132e+00
3.1649476e+00 5.2852510e+00 9.1010100e+00
3.1968009e+00 5.2010705e+00 8.9339736e+00
3.2369818e+00 5.1133680e+00 8.7703041e+00
3.2854902e+00 5.0221435e+00 8.6100015e+00
3.2854902e+00 5.0221435e+00 8.6100015e+00
3.3518773e+00 4.9249123e+00 8.4581855e+00
3.4299178e+00 4.8256099e+00 8.3168094e+00
3.5196116e+00 4.7242363e+00 8.1858732e+00
3.6209588e+00 4.6207914e+00 8.0653767e+00
3.7339593e+00 4.5152752e+00 7.9553202e+00
3.8586133e+00 4.4076877e+00 7.8557034e+00
3.8586133e+00 4.4076877e+00 7.8557034e+00
3.9811454e+00 4.3010821e+00 7.7575481e+00
4.1040648e+00 4.1937450e+00 7.6608552e+00
4.2273712e+00 4.0856764e+00 7.5656245e+00
4.3510648e+00 3.9768763e+00 7.4718560e+00
4.4751456e+00 3.8673447e+00 7.3795499e+00
4.5996135e+00 3.7570816e+00 7.2887060e+00
4.5996135e+00 3.7570816e+00 7.2887060e+00
4.7258914e+00 3.6442372e+00 7.2024209e+00
4.8479913e+00 3.5287662e+00 7.1141994e+00
4.9659132e+00 3.4106687e+00 7.0240416e+00
5.0796571e+00 3.2899445e+00 6.9319473e+00
5.1892230e+00 3.1665937e+00 6.8379167e+00
5.2946109e+00 3.0406163e+00 6.7419496e+00
5.2946109e+00 3.0406163e+00 6.7419496e+00
5.3923346e+00 2.9123022e+00 6.6393750e+00
5.4792935e+00 2.7824554e+00 6.5315309e+00
5.5554878e+00 2.6510759e+00 6.4184174e+00
5.6209173e+00 2.5181637e+00 6.3000344e+00
5.6755821e+00 2.3837189e+00 6.1763821e+00
5.7194822e+00 2.2477414e+00 6.0474603e+00
5.7194822e+00 2.2477414e+00 6.0474603e+00
5.7450686e+00 2.1117985e+00 5.9132976e+00
5.7592805e+00 1.9771586e+00 5.7780156e+00
5.7621178e+00 1.8438216e+00 5.6416145e+00
5.7535806e+00 1.7117876e+00 5.5040941e+00
5.7336689e+00 1.5810565e+00 5.3654545e+00
5.7023826e+00 1.4516284e+00 5.2256957e+00
5.7023826e+00 1.4516284e+00 5.2256957e+00
5.6645184e+00 1.3265025e+00 5.0840470e+00
5.6219506e+00 1.2032015e+00 4.9424315e+00
5.5746790e+00 1.0817254e+00 4.8008493e+00
5.5227038e+00 9.6207418e-01 4.6593004e+00
5.4660249e+00 8.4424783e-01 4.5177847e+00
5.4046424e+00 7.2824636e-01 4.3763022e+00
5.4046424e+00 7.2824636e-01 4.3763022e+00
5.3417517e+00 6.0826098e-01 4.2391042e+00
5.2778642e+00 4.8815055e-01 4.1023598e+00
5.2129798e+00 3.6791508e-01 3.9660690e+00
5.1470985e+00 2.4755456e-01 3.8302318e+00
5.0802205e+00 1.2706900e-01 3.6948481e+00
5.0123455e+00 6.4583900e-03 3.5599181e+00
2.2743600e+00 6.0672244e+00 1.3851990e+01
2.3510730e+00 6.1764797e+00 1.3707977e+01
2.4396134e+00 6.2838260e+00 1.3573467e+01
2.5399811e+00 6.3892632e+00 1.3448461e+01
2.6521761e+00 6.4927915e+00 1.3332957e+01
2.7761985e+00 6.5944107e+00 1.3226956e+01
2.9120482e+00 6.6941209e+00 1.3130459e+01
2.9120482e+00 6.6941209e+00 1.3130459e+01
3.0786097e+00 6.7768902e+00 1.3073596e+01
3.2507803e+00 6.8487557e+00 1.3029344e+01
3.4285600e+00 6.9097174e+00 1.2997701e+01
3.6119488e+00 6.9597752e+00 1.2978668e+01
3.8009469e+00 6.9989292e+00 1.2972246e+01
3.9955540e+00 7.0271794e+00 1.2978433e+01
3.9955540e+00 7.0271794e+00 1.2978433e+01
4.1909146e+00 7.0477464e+00 1.2985031e+01
4.3822282e+00 7.0684726e+00 1.2974007e+01
4.5694948e+00 7.0893579e+00 1.2945360e+01
4.7527143e+00 7.1104024e+00 1.2899090e+01
4.9318869e+00 7.1316060e+00 1.2835198e+01
5.1070125e+00 7.1529688e+00 1.2753682e+01
5.1070125e+00 7.1529688e+00 1.2753682e+01
5.2542637e+00 7.1803757e+00 1.2629377e+01
5.3900318e+00 7.2048701e+00 1.2495113e+01
5.5143167e+00 7.2264519e+00 1.2350893e+01
5.6271184e+00 7.2451213e+00 1.2196714e+01
[...]
POINT_DATA 4361
VECTORS U float
2.5213700e+00 8.1087400e-01 -8.7719900e-03
2.5415733e+00 7.9175189e-01 2.1884833e-03
2.5605800e+00 7.7081256e-01 1.1637247e-02
2.5783900e+00 7.4805600e-01 1.9574300e-02
2.5950033e+00 7.2348222e-01 2.5999643e-02
2.6104200e+00 6.9709122e-01 3.0913277e-02
2.6246400e+00 6.6888300e-01 3.4315200e-02
2.6246400e+00 6.6888300e-01 3.4315200e-02
2.6356078e+00 6.4816278e-01 3.7279500e-02
2.6451611e+00 6.2605211e-01 3.7577867e-02
2.6533000e+00 6.0255100e-01 3.5210300e-02
2.6600244e+00 5.7765944e-01 3.0176800e-02
2.6653344e+00 5.5137744e-01 2.2477367e-02
2.6692300e+00 5.2370500e-01 1.2112000e-02
2.6692300e+00 5.2370500e-01 1.2112000e-02
2.6772522e+00 4.9158856e-01 6.7924278e-03
2.6843922e+00 4.6141122e-01 4.5373511e-03
2.6906500e+00 4.3317300e-01 5.3467700e-03
2.6960256e+00 4.0687389e-01 9.2206844e-03
2.7005189e+00 3.8251389e-01 1.6159094e-02
2.7041300e+00 3.6009300e-01 2.6162000e-02
2.7041300e+00 3.6009300e-01 2.6162000e-02
2.7070644e+00 3.3823633e-01 2.7794344e-02
2.7095544e+00 3.1792600e-01 2.9226844e-02
2.7116000e+00 2.9916200e-01 3.0459500e-02
2.7132011e+00 2.8194433e-01 3.1492311e-02
2.7143578e+00 2.6627300e-01 3.2325278e-02
2.7150700e+00 2.5214800e-01 3.2958400e-02
2.7150700e+00 2.5214800e-01 3.2958400e-02
2.7150567e+00 2.3874433e-01 3.5714111e-02
2.7149800e+00 2.2624167e-01 3.8132378e-02
2.7148400e+00 2.1464000e-01 4.0213200e-02
2.7146367e+00 2.0393933e-01 4.1956578e-02
2.7143700e+00 1.9413967e-01 4.3362511e-02
2.7140400e+00 1.8524100e-01 4.4431000e-02
2.7140400e+00 1.8524100e-01 4.4431000e-02
2.7136700e+00 1.7634644e-01 4.5649589e-02
2.7129700e+00 1.6865444e-01 4.5529789e-02
2.7119400e+00 1.6216500e-01 4.4071600e-02
2.7105800e+00 1.5687811e-01 4.1275022e-02
2.7088900e+00 1.5279378e-01 3.7140056e-02
2.7068700e+00 1.4991200e-01 3.1666700e-02
2.7068700e+00 1.4991200e-01 3.1666700e-02
2.7048256e+00 1.4809822e-01 2.6871256e-02
2.7010022e+00 1.4967156e-01 2.0705689e-02
2.6954000e+00 1.5463200e-01 1.3170000e-02
2.6880189e+00 1.6297956e-01 4.2641889e-03
2.6788589e+00 1.7471422e-01 -6.0117444e-03
2.6679200e+00 1.8983600e-01 -1.7657800e-02
2.6679200e+00 1.8983600e-01 -1.7657800e-02
2.6490011e+00 2.2873233e-01 -3.3002844e-02
2.6318078e+00 2.6459833e-01 -4.7145044e-02
2.6163400e+00 2.9743400e-01 -6.0084400e-02
2.6025978e+00 3.2723933e-01 -7.1820911e-02
2.5905811e+00 3.5401433e-01 -8.2354578e-02
2.5802900e+00 3.7775900e-01 -9.1685400e-02
2.5802900e+00 3.7775900e-01 -9.1685400e-02
2.5670400e+00 3.6609367e-01 -7.9302378e-02
2.5523267e+00 3.5105367e-01 -6.3331444e-02
2.5361500e+00 3.3263900e-01 -4.3772600e-02
2.5185100e+00 3.1084967e-01 -2.0625844e-02
2.4994067e+00 2.8568567e-01 6.1088222e-03
2.4788400e+00 2.5714700e-01 3.6431400e-02
2.4788400e+00 2.5714700e-01 3.6431400e-02
2.4547611e+00 2.4906033e-01 5.5629778e-02
2.4294244e+00 2.4126900e-01 7.4604844e-02
2.4028300e+00 2.3377300e-01 9.3356600e-02
2.3749778e+00 2.2657233e-01 1.1188504e-01
2.3458678e+00 2.1966700e-01 1.3019018e-01
2.3155000e+00 2.1305700e-01 1.4827200e-01
2.3155000e+00 2.1305700e-01 1.4827200e-01
2.2839800e+00 2.1135689e-01 1.6260200e-01
2.2506367e+00 2.0940956e-01 1.7573900e-01
2.2154700e+00 2.0721500e-01 1.8768300e-01
2.1784800e+00 2.0477322e-01 1.9843400e-01
2.1396667e+00 2.0208422e-01 2.0799200e-01
2.0990300e+00 1.9914800e-01 2.1635700e-01
2.0990300e+00 1.9914800e-01 2.1635700e-01
2.0596400e+00 1.9561856e-01 2.2266956e-01
2.0194667e+00 1.9153522e-01 2.2667422e-01
1.9785100e+00 1.8689800e-01 2.2837100e-01
1.9367700e+00 1.8170689e-01 2.2775989e-01
1.8942467e+00 1.7596189e-01 2.2484089e-01
1.8509400e+00 1.6966300e-01 2.1961400e-01
1.8509400e+00 1.6966300e-01 2.1961400e-01
1.8083256e+00 1.6219067e-01 2.1270978e-01
1.7669589e+00 1.5346333e-01 2.0556244e-01
1.7268400e+00 1.4348100e-01 1.9817200e-01
1.6879689e+00 1.3224367e-01 1.9053844e-01
1.6503456e+00 1.1975133e-01 1.8266178e-01
1.6139700e+00 1.0600400e-01 1.7454200e-01
1.6139700e+00 1.0600400e-01 1.7454200e-01
1.5772178e+00 9.1924700e-02 1.6589378e-01
1.5405378e+00 7.8095600e-02 1.5659078e-01
1.5039300e+00 6.4516700e-02 1.4663300e-01
1.4673944e+00 5.1188000e-02 1.3602044e-01
1.4309311e+00 3.8109500e-02 1.2475311e-01
1.3945400e+00 2.5281200e-02 1.1283100e-01
1.3945400e+00 2.5281200e-02 1.1283100e-01
1.3568089e+00 1.2211811e-02 1.0080486e-01
1.3174422e+00 -1.5439889e-03 8.9049856e-02
1.2764400e+00 -1.5986200e-02 7.7566000e-02
1.2338022e+00 -3.1114822e-02 6.6353289e-02
1.1895289e+00 -4.6929856e-02 5.5411722e-02
1.1436200e+00 -6.3431300e-02 4.4741300e-02
1.1436200e+00 -6.3431300e-02 4.4741300e-02
1.0957786e+00 -7.9978833e-02 3.5026932e-02
1.0462486e+00 -9.4795733e-02 2.5634599e-02
9.9503000e-01 -1.0788200e-01 1.6564300e-02
9.4212289e-01 -1.1923763e-01 7.8160356e-03
8.8752722e-01 -1.2886263e-01 -6.1019444e-04
8.3124300e-01 -1.3675700e-01 -8.7143900e-03
8.3124300e-01 -1.3675700e-01 -8.7143900e-03
7.7504411e-01 -1.4335144e-01 -1.4264294e-02
7.2002411e-01 -1.4780678e-01 -1.8367898e-02
6.6618300e-01 -1.5012300e-01 -2.1025200e-02
6.1352078e-01 -1.5030011e-01 -2.2236201e-02
5.6203744e-01 -1.4833811e-01 -2.2000901e-02
5.1173300e-01 -1.4423700e-01 -2.0319300e-02
5.1173300e-01 -1.4423700e-01 -2.0319300e-02
4.6521622e-01 -1.3535656e-01 -2.1040500e-02
4.2195756e-01 -1.2582356e-01 -2.1556267e-02
3.8195700e-01 -1.1563800e-01 -2.1866600e-02
3.4521456e-01 -1.0479989e-01 -2.1971500e-02
3.1173022e-01 -9.3309222e-02 -2.1870967e-02
2.8150400e-01 -8.1166000e-02 -2.1565000e-02
2.8150400e-01 -8.1166000e-02 -2.1565000e-02
2.4956011e-01 -6.8585511e-02 -1.9302578e-02
2.1950744e-01 -5.6405811e-02 -1.6765178e-02
1.9134600e-01 -4.4626900e-02 -1.3952800e-02
1.6507578e-01 -3.3248778e-02 -1.0865444e-02
1.4069678e-01 -2.2271444e-02 -7.5031111e-03
1.1820900e-01 -1.1694900e-02 -3.8658000e-03
1.1820900e-01 -1.1694900e-02 -3.8658000e-03
9.9340156e-02 -5.0670111e-03 -7.1985556e-04
8.1441989e-02 1.2451822e-03 2.4200378e-03
6.4514500e-02 7.2416800e-03 5.5538800e-03
4.8557689e-02 1.2922482e-02 8.6816711e-03
3.3571556e-02 1.8287589e-02 1.1803411e-02
1.9556100e-02 2.3337000e-02 1.4919100e-02
2.2775500e+00 1.0448900e+00 1.0714800e-01
2.2579678e+00 1.0332336e+00 1.1423000e-01
2.2353744e+00 1.0171062e+00 1.2326033e-01
2.2097700e+00 9.9650800e-01 1.3423900e-01
2.1811544e+00 9.7143889e-01 1.4716600e-01
2.1495278e+00 9.4189889e-01 1.6204133e-01
2.1148900e+00 9.0788800e-01 1.7886500e-01
2.1148900e+00 9.0788800e-01 1.7886500e-01
2.0874456e+00 8.9094878e-01 1.8775856e-01
2.0581456e+00 8.7367678e-01 1.9579956e-01
2.0269900e+00 8.5607200e-01 2.0298800e-01
1.9939789e+00 8.3813444e-01 2.0932389e-01
1.9591122e+00 8.1986411e-01 2.1480722e-01
1.9223900e+00 8.0126100e-01 2.1943800e-01
1.9223900e+00 8.0126100e-01 2.1943800e-01
1.8833011e+00 7.8005689e-01 2.2310522e-01
1.8409044e+00 7.5752356e-01 2.2409189e-01
1.7952000e+00 7.3366100e-01 2.2239800e-01
1.7461878e+00 7.0846922e-01 2.1802356e-01
1.6938678e+00 6.8194822e-01 2.1096856e-01
1.6382400e+00 6.5409800e-01 2.0123300e-01
1.6382400e+00 6.5409800e-01 2.0123300e-01
1.5895978e+00 6.2179844e-01 1.9000711e-01
1.5464978e+00 5.8872611e-01 1.8207544e-01
1.5089400e+00 5.5488100e-01 1.7743800e-01
1.4769244e+00 5.2026311e-01 1.7609478e-01
1.4504511e+00 4.8487244e-01 1.7804578e-01
1.4295200e+00 4.4870900e-01 1.8329100e-01
1.4295200e+00 4.4870900e-01 1.8329100e-01
1.4041400e+00 4.1451844e-01 1.8450444e-01
1.3780567e+00 3.8124411e-01 1.8402744e-01
1.3512700e+00 3.4888600e-01 1.8186000e-01
1.3237800e+00 3.1744411e-01 1.7800211e-01
1.2955867e+00 2.8691844e-01 1.7245378e-01
1.2666900e+00 2.5730900e-01 1.6521500e-01
1.2666900e+00 2.5730900e-01 1.6521500e-01
1.2401089e+00 2.2716510e-01 1.6145422e-01
1.2115622e+00 1.9728943e-01 1.5651122e-01
1.1810500e+00 1.6768200e-01 1.5038600e-01
1.1485722e+00 1.3834280e-01 1.4307856e-01
1.1141289e+00 1.0927183e-01 1.3458889e-01
1.0777200e+00 8.0469100e-02 1.2491700e-01
1.0777200e+00 8.0469100e-02 1.2491700e-01
1.0371969e+00 5.3289756e-02 1.1151638e-01
9.9333356e-01 2.8596616e-02 9.7184278e-02
9.4613000e-01 6.3896800e-03 8.1920700e-02
8.9558622e-01 -1.3331051e-02 6.5725644e-02
8.4170222e-01 -3.0565578e-02 4.8599111e-02
7.8447800e-01 -4.5313900e-02 3.0541100e-02
7.8447800e-01 -4.5313900e-02 3.0541100e-02
7.2135767e-01 -5.5412611e-02 1.3960089e-02
6.5942433e-01 -6.2651144e-02 3.2715556e-04
5.9867800e-01 -6.7029500e-02 -1.0357700e-02
5.3911867e-01 -6.8547678e-02 -1.8094478e-02
4.8074633e-01 -6.7205678e-02 -2.2883178e-02
4.2356100e-01 -6.3003500e-02 -2.4723800e-02
4.2356100e-01 -6.3003500e-02 -2.4723800e-02
3.7289144e-01 -5.5888989e-02 -2.6751000e-02
3.2564178e-01 -4.8142522e-02 -2.8036067e-02
2.8181200e-01 -3.9764100e-02 -2.8579000e-02
2.4140211e-01 -3.0753722e-02 -2.8379800e-02
2.0441211e-01 -2.1111389e-02 -2.7438467e-02
1.7084200e-01 -1.0837100e-02 -2.5755000e-02
1.7084200e-01 -1.0837100e-02 -2.5755000e-02
1.4017347e-01 -6.0851211e-03 -2.0214194e-02
1.1079927e-01 -2.0809011e-03 -1.4281204e-02
8.2719400e-02 1.1755600e-03 -7.9560300e-03
5.5933860e-02 3.6842622e-03 -1.2386711e-03
3.0442650e-02 5.4452056e-03 5.8708722e-03
6.2457700e-03 6.4583900e-03 1.3372600e-02
2.2743600e+00 1.0975200e+00 -6.7792400e-02
2.3003756e+00 1.1037011e+00 -5.2418522e-02
2.3248556e+00 1.1065378e+00 -3.7684789e-02
2.3478000e+00 1.1060300e+00 -2.3591200e-02
2.3692089e+00 1.1021778e+00 -1.0137756e-02
2.3890822e+00 1.0949811e+00 2.6755444e-03
2.4074200e+00 1.0844400e+00 1.4848700e-02
2.4074200e+00 1.0844400e+00 1.4848700e-02
2.4221878e+00 1.0627453e+00 2.2047032e-02
2.4354778e+00 1.0389353e+00 2.5776032e-02
2.4472900e+00 1.0130100e+00 2.6035700e-02
2.4576244e+00 9.8496933e-01 2.2826036e-02
2.4664811e+00 9.5481333e-01 1.6147039e-02
2.4738600e+00 9.2254200e-01 5.9987100e-03
2.4738600e+00 9.2254200e-01 5.9987100e-03
2.4804389e+00 8.8734689e-01 -2.7712389e-03
2.4856022e+00 8.5717322e-01 -1.0310876e-02
2.4893500e+00 8.3202100e-01 -1.6620200e-02
2.4916822e+00 8.1189022e-01 -2.1699212e-02
2.4925989e+00 7.9678089e-01 -2.5547912e-02
2.4921000e+00 7.8669300e-01 -2.8166300e-02
2.4921000e+00 7.8669300e-01 -2.8166300e-02
2.4935089e+00 7.9064789e-01 -2.6164001e-02
2.4963056e+00 7.9463289e-01 -2.3669668e-02
2.5004900e+00 7.9864800e-01 -2.0683300e-02
2.5060622e+00 8.0269322e-01 -1.7204898e-02
2.5130222e+00 8.0676856e-01 -1.3234461e-02
2.5213700e+00 8.1087400e-01 -8.7719900e-03
2.2264100e+00 1.0780100e+00 1.9042100e-02
2.2385111e+00 1.0784567e+00 4.1504889e-02
2.2491811e+00 1.0765167e+00 6.0856289e-02
2.2584200e+00 1.0721900e+00 7.7096300e-02
2.2662278e+00 1.0654767e+00 9.0224922e-02
2.2726044e+00 1.0563767e+00 1.0024216e-01
2.2775500e+00 1.0448900e+00 1.0714800e-01
2.5802900e+00 3.7775900e-01 -9.1685400e-02
2.5504478e+00 3.3594089e-01 -8.8397678e-02
2.5193011e+00 2.9541289e-01 -8.3524478e-02
2.4868500e+00 2.5617500e-01 -7.7065800e-02
2.4530944e+00 2.1822722e-01 -6.9021644e-02
2.4180344e+00 1.8156956e-01 -5.9392011e-02
2.3816700e+00 1.4620200e-01 -4.8176900e-02
2.3816700e+00 1.4620200e-01 -4.8176900e-02
2.3611056e+00 1.2422606e-01 -4.2084800e-02
2.3384522e+00 1.0473479e-01 -3.3737600e-02
2.3137100e+00 8.7728200e-02 -2.3135300e-02
2.2868789e+00 7.3206289e-02 -1.0277900e-02
2.2579589e+00 6.1169056e-02 4.8346000e-03
2.2269500e+00 5.1616500e-02 2.2202200e-02
2.2269500e+00 5.1616500e-02 2.2202200e-02
2.1910211e+00 4.0529751e-02 3.8060856e-02
2.1544078e+00 3.0551751e-02 5.2042022e-02
2.1171100e+00 2.1682500e-02 6.4145700e-02
2.0791278e+00 1.3921998e-02 7.4371889e-02
2.0404611e+00 7.2702444e-03 8.2720589e-02
2.0011100e+00 1.7272400e-03 8.9191800e-02
2.0011100e+00 1.7272400e-03 8.9191800e-02
1.9529878e+00 -3.2737222e-03 9.2303189e-02
1.9045611e+00 -7.4505022e-03 9.3048089e-02
1.8558300e+00 -1.0803100e-02 9.1426500e-02
1.8067944e+00 -1.3331516e-02 8.7438422e-02
1.7574544e+00 -1.5035749e-02 8.1083856e-02
1.7078100e+00 -1.5915800e-02 7.2362800e-02
1.7078100e+00 -1.5915800e-02 7.2362800e-02
1.6655489e+00 -1.3754261e-02 6.5724689e-02
1.6243156e+00 -1.0694498e-02 5.8748222e-02
1.5841100e+00 -6.7365100e-03 5.1433400e-02
1.5449322e+00 -1.8802978e-03 4.3780222e-02
1.5067822e+00 3.8741389e-03 3.5788689e-02
1.4696600e+00 1.0526800e-02 2.7458800e-02
1.4696600e+00 1.0526800e-02 2.7458800e-02
1.4321311e+00 1.5787733e-02 1.7525411e-02
1.3943544e+00 2.1555233e-02 7.5397511e-03
1.3563300e+00 2.7829300e-02 -2.4981800e-03
1.3180578e+00 3.4609933e-02 -1.2588382e-02
1.2795378e+00 4.1897133e-02 -2.2730856e-02
1.2407700e+00 4.9690900e-02 -3.2925600e-02
1.2407700e+00 4.9690900e-02 -3.2925600e-02
1.2046607e+00 5.5990667e-02 -4.2365611e-02
1.1662540e+00 6.3602600e-02 -5.0681611e-02
1.1255500e+00 7.2526700e-02 -5.7873600e-02
1.0825487e+00 8.2762967e-02 -6.3941578e-02
1.0372500e+00 9.4311400e-02 -6.8885544e-02
9.8965400e-01 1.0717200e-01 -7.2705500e-02
9.8965400e-01 1.0717200e-01 -7.2705500e-02
9.3590111e-01 1.2350667e-01 -7.4594267e-02
8.8259811e-01 1.3699333e-01 -7.5524667e-02
8.2974500e-01 1.4763200e-01 -7.5496700e-02
7.7734178e-01 1.5542267e-01 -7.4510367e-02
7.2538844e-01 1.6036533e-01 -7.2565667e-02
6.7388500e-01 1.6246000e-01 -6.9662600e-02
6.7388500e-01 1.6246000e-01 -6.9662600e-02
6.1795767e-01 1.6154667e-01 -6.6073733e-02
5.6466600e-01 1.5863667e-01 -6.1206667e-02
5.1401000e-01 1.5373000e-01 -5.5061400e-02
4.6598967e-01 1.4682667e-01 -4.7637933e-02
4.2060500e-01 1.3792667e-01 -3.8936267e-02
3.7785600e-01 1.2703000e-01 -2.8956400e-02
3.7785600e-01 1.2703000e-01 -2.8956400e-02
3.3265167e-01 1.1665301e-01 -1.2027922e-02
2.8958833e-01 1.0551348e-01 3.5705444e-03
2.4866600e-01 9.3611400e-02 1.7839000e-02
2.0988467e-01 8.0946778e-02 3.0777444e-02
1.7324433e-01 6.7519611e-02 4.2385878e-02
1.3874500e-01 5.3329900e-02 5.2664300e-02
1.3874500e-01 5.3329900e-02 5.2664300e-02
1.2175526e-01 4.5550678e-02 4.4978610e-02
1.0358902e-01 3.6164944e-02 3.6871210e-02
8.4246300e-02 2.5172700e-02 2.8342100e-02
6.3727089e-02 1.2573944e-02 1.9391281e-02
4.2031389e-02 -1.6313222e-03 1.0018752e-02
1.9159200e-02 -1.7443100e-02 2.2451400e-04
7.9679000e+00 5.0979700e-01 1.3559600e-01
7.9507022e+00 4.6601556e-01 1.4836044e-01
7.9325122e+00 4.2401156e-01 1.6081978e-01
7.9133300e+00 3.8378500e-01 1.7297400e-01
7.8931556e+00 3.4533589e-01 1.8482311e-01
7.8719889e+00 3.0866422e-01 1.9636711e-01
7.8498300e+00 2.7377000e-01 2.0760600e-01
7.8498300e+00 2.7377000e-01 2.0760600e-01
7.8297356e+00 2.4925889e-01 2.1631244e-01
7.8086889e+00 2.3109489e-01 2.2415744e-01
7.7866900e+00 2.1927800e-01 2.3114100e-01
7.7637389e+00 2.1380822e-01 2.3726311e-01
7.7398356e+00 2.1468556e-01 2.4252378e-01
7.7149800e+00 2.2191000e-01 2.4692300e-01
7.7149800e+00 2.2191000e-01 2.4692300e-01
7.6913467e+00 2.2787622e-01 2.4957022e-01
7.6658533e+00 2.3481689e-01 2.5232722e-01
7.6385000e+00 2.4273200e-01 2.5519400e-01
7.6092867e+00 2.5162156e-01 2.5817056e-01
7.5782133e+00 2.6148556e-01 2.6125689e-01
7.5452800e+00 2.7232400e-01 2.6445300e-01
7.5452800e+00 2.7232400e-01 2.6445300e-01
7.5008311e+00 2.8615789e-01 2.7152656e-01
7.4582178e+00 2.9314256e-01 2.7837522e-01
7.4174400e+00 2.9327800e-01 2.8499900e-01
7.3784978e+00 2.8656422e-01 2.9139789e-01
7.3413911e+00 2.7300122e-01 2.9757189e-01
7.3061200e+00 2.5258900e-01 3.0352100e-01
7.3061200e+00 2.5258900e-01 3.0352100e-01
7.2777544e+00 2.2842722e-01 3.0276300e-01
7.2508744e+00 2.0379022e-01 2.9937733e-01
7.2254800e+00 1.7867800e-01 2.9336400e-01
7.2015711e+00 1.5309056e-01 2.8472300e-01
7.1791478e+00 1.2702789e-01 2.7345433e-01
7.1582100e+00 1.0049000e-01 2.5955800e-01
7.1582100e+00 1.0049000e-01 2.5955800e-01
7.1290489e+00 1.2751600e-01 2.6231144e-01
7.0970222e+00 1.5313467e-01 2.6367378e-01
7.0621300e+00 1.7734600e-01 2.6364500e-01
7.0243722e+00 2.0015000e-01 2.6222511e-01
6.9837489e+00 2.2154667e-01 2.5941411e-01
6.9402600e+00 2.4153600e-01 2.5521200e-01
6.9402600e+00 2.4153600e-01 2.5521200e-01
6.8971533e+00 2.5540700e-01 2.4384189e-01
6.8562933e+00 2.6363533e-01 2.3058422e-01
6.8176800e+00 2.6622100e-01 2.1543900e-01
6.7813133e+00 2.6316400e-01 1.9840622e-01
6.7471933e+00 2.5446433e-01 1.7948589e-01
6.7153200e+00 2.4012200e-01 1.5867800e-01
6.7153200e+00 2.4012200e-01 1.5867800e-01
6.6862967e+00 2.1875744e-01 1.4450269e-01
6.6550067e+00 1.9704578e-01 1.2943736e-01
6.6214500e+00 1.7498700e-01 1.1348200e-01
6.5856267e+00 1.5258111e-01 9.6636622e-02
6.5475367e+00 1.2982811e-01 7.8901222e-02
6.5071800e+00 1.0672800e-01 6.0275800e-02
6.5071800e+00 1.0672800e-01 6.0275800e-02
6.4585722e+00 8.6271522e-02 3.7475596e-02
6.4070922e+00 7.2154589e-02 1.7105314e-02
6.3527400e+00 6.4377200e-02 -8.3504700e-04
6.2955156e+00 6.2939356e-02 -1.6345486e-02
6.2354189e+00 6.7841056e-02 -2.9426004e-02
6.1724500e+00 7.9082300e-02 -4.0076600e-02
6.1724500e+00 7.9082300e-02 -4.0076600e-02
6.1120467e+00 1.0122961e-01 -4.3234222e-02
6.0570133e+00 1.2294251e-01 -4.5607122e-02
6.0073500e+00 1.4422100e-01 -4.7195300e-02
5.9630567e+00 1.6506508e-01 -4.7998756e-02
5.9241333e+00 1.8547474e-01 -4.8017489e-02
5.8905800e+00 2.0545000e-01 -4.7251500e-02
6.0108400e+00 2.6303100e-01 -8.5885800e-02
5.9982800e+00 2.4775889e-01 -8.2208111e-02
5.9827267e+00 2.3475689e-01 -7.7425878e-02
5.9641800e+00 2.2402500e-01 -7.1539100e-02
5.9426400e+00 2.1556322e-01 -6.4547778e-02
5.9181067e+00 2.0937156e-01 -5.6451911e-02
5.8905800e+00 2.0545000e-01 -4.7251500e-02
7.5880900e+00 5.5146800e-01 1.5003400e-01
7.5632644e+00 5.3439022e-01 1.3439818e-01
7.5378978e+00 5.1677022e-01 1.1758274e-01
7.5119900e+00 4.9860800e-01 9.9587700e-02
7.4855411e+00 4.7990356e-01 8.0413044e-02
7.4585511e+00 4.6065689e-01 6.0058778e-02
7.4310200e+00 4.4086800e-01 3.8524900e-02
7.4310200e+00 4.4086800e-01 3.8524900e-02
7.4033300e+00 4.1527378e-01 1.6059011e-02
7.3763433e+00 3.9099578e-01 -6.9492222e-04
7.3500600e+00 3.6803400e-01 -1.1736900e-02
7.3244800e+00 3.4638844e-01 -1.7066922e-02
7.2996033e+00 3.2605911e-01 -1.6684989e-02
7.2754300e+00 3.0704600e-01 -1.0591100e-02
7.2754300e+00 3.0704600e-01 -1.0591100e-02
7.2404800e+00 3.0192578e-01 1.5807722e-02
7.2034833e+00 2.9918944e-01 4.2035422e-02
7.1644400e+00 2.9883700e-01 6.8092000e-02
7.1233500e+00 3.0086844e-01 9.3977456e-02
7.0802133e+00 3.0528378e-01 1.1969179e-01
7.0350300e+00 3.1208300e-01 1.4523500e-01
7.0350300e+00 3.1208300e-01 1.4523500e-01
6.9918022e+00 3.2053278e-01 1.7082678e-01
6.9464356e+00 3.2648578e-01 1.9575244e-01
6.8989300e+00 3.2994200e-01 2.2001200e-01
6.8492856e+00 3.3090144e-01 2.4360544e-01
6.7975022e+00 3.2936411e-01 2.6653278e-01
6.7435800e+00 3.2533000e-01 2.8879400e-01
6.7435800e+00 3.2533000e-01 2.8879400e-01
6.6831400e+00 3.0074333e-01 2.7630962e-01
6.6191300e+00 2.8183800e-01 2.5416562e-01
6.5515500e+00 2.6861400e-01 2.2236200e-01
6.4804000e+00 2.6107133e-01 1.8089876e-01
6.4056800e+00 2.5921000e-01 1.2977589e-01
6.3273900e+00 2.6303000e-01 6.8993400e-02
6.3273900e+00 2.6303000e-01 6.8993400e-02
6.2588400e+00 2.6908878e-01 2.4831811e-02
6.1966067e+00 2.7272411e-01 -1.1990422e-02
6.1406900e+00 2.7393600e-01 -4.1473300e-02
6.0910900e+00 2.7272444e-01 -6.3616822e-02
6.0478067e+00 2.6908944e-01 -7.8420989e-02
6.0108400e+00 2.6303100e-01 -8.5885800e-02
4.4362300e+00 4.9200700e-01 -8.6238500e-02
4.4757389e+00 4.5782511e-01 -7.7602378e-02
4.5223556e+00 4.2468144e-01 -7.2116978e-02
4.5760800e+00 3.9257600e-01 -6.9782300e-02
4.6369122e+00 3.6150878e-01 -7.0598344e-02
4.7048522e+00 3.3147978e-01 -7.4565111e-02
4.7799000e+00 3.0248900e-01 -8.1682600e-02
4.7799000e+00 3.0248900e-01 -8.1682600e-02
4.8608322e+00 2.9536500e-01 -8.1808244e-02
4.9421522e+00 2.9562233e-01 -7.9978278e-02
5.0238600e+00 3.0326100e-01 -7.6192700e-02
5.1059556e+00 3.1828100e-01 -7.0451511e-02
5.1884389e+00 3.4068233e-01 -6.2754711e-02
5.2713100e+00 3.7046500e-01 -5.3102300e-02
5.2713100e+00 3.7046500e-01 -5.3102300e-02
5.3471300e+00 4.0130422e-01 -4.9299567e-02
5.4223267e+00 4.2496689e-01 -4.6706567e-02
5.4969000e+00 4.4145300e-01 -4.5323300e-02
5.5708500e+00 4.5076256e-01 -4.5149767e-02
5.6441767e+00 4.5289556e-01 -4.6185967e-02
5.7168800e+00 4.4785200e-01 -4.8431900e-02
5.7168800e+00 4.4785200e-01 -4.8431900e-02
5.7820567e+00 4.2081156e-01 -5.4216967e-02
5.8407600e+00 3.9226589e-01 -6.0184933e-02
5.8929900e+00 3.6221500e-01 -6.6335800e-02
5.9387467e+00 3.3065889e-01 -7.2669567e-02
5.9780300e+00 2.9759756e-01 -7.9186233e-02
6.0108400e+00 2.6303100e-01 -8.5885800e-02