# vtk DataFile Version 2.0
test
ASCII
DATASET POLYDATA
POINTS 4361 float
6.2353622e+00 7.4025795e+00 1.1857873e+01
6.3532534e+00 7.4518448e+00 1.1736278e+01
6.4723476e+00 7.4993780e+00 1.1615216e+01
6.5926450e+00 7.5451791e+00 1.1494689e+01
6.7141455e+00 7.5892480e+00 1.1374696e+01
6.8368491e+00 7.6315847e+00 1.1255237e+01
6.9607558e+00 7.6721894e+00 1.1136312e+01
6.9607558e+00 7.6721894e+00 1.1136312e+01
7.0873556e+00 7.7229317e+00 1.1021150e+01
7.2195192e+00 7.7717081e+00 1.0913002e+01
7.3572465e+00 7.8185185e+00 1.0811868e+01
7.5005375e+00 7.8633630e+00 1.0717749e+01
7.6493922e+00 7.9062416e+00 1.0630643e+01
7.8038106e+00 7.9471541e+00 1.0550550e+01
7.8038106e+00 7.9471541e+00 1.0550550e+01
7.9718280e+00 7.9799797e+00 1.0494919e+01
8.1416618e+00 8.0111770e+00 1.0455959e+01
8.3133120e+00 8.0407460e+00 1.0433671e+01
8.4867786e+00 8.0686868e+00 1.0428055e+01
8.6620616e+00 8.0949992e+00 1.0439111e+01
8.8391611e+00 8.1196834e+00 1.0466839e+01
8.8391611e+00 8.1196834e+00 1.0466839e+01
9.0140279e+00 8.1404313e+00 1.0492891e+01
9.1885089e+00 8.1595056e+00 1.0522203e+01
9.3626042e+00 8.1769062e+00 1.0554777e+01
9.5363137e+00 8.1926331e+00 1.0590610e+01
9.7096375e+00 8.2066864e+00 1.0629705e+01
9.8825756e+00 8.2190661e+00 1.0672061e+01
9.8825756e+00 8.2190661e+00 1.0672061e+01
1.0055139e+01 8.2295711e+00 1.0716854e+01
1.0228670e+01 8.2383824e+00 1.0757011e+01
1.0403168e+01 8.2455001e+00 1.0792533e+01
1.0578635e+01 8.2509240e+00 1.0823419e+01
1.0755069e+01 8.2546543e+00 1.0849670e+01
1.0932470e+01 8.2566909e+00 1.0871285e+01
1.0932470e+01 8.2566909e+00 1.0871285e+01
1.1112466e+01 8.2559288e+00 1.0884486e+01
1.1290462e+01 8.2534874e+00 1.0882963e+01
1.1466459e+01 8.2493667e+00 1.0866714e+01
1.1640457e+01 8.2435668e+00 1.0835740e+01
1.1812456e+01 8.2360876e+00 1.0790041e+01
1.1982455e+01 8.2269292e+00 1.0729616e+01
1.1982455e+01 8.2269292e+00 1.0729616e+01
1.2144702e+01 8.2160091e+00 1.0650824e+01
1.2298366e+01 8.2074596e+00 1.0560656e+01
1.2443447e+01 8.2012807e+00 1.0459111e+01
1.2579944e+01 8.1974724e+00 1.0346190e+01
1.2707858e+01 8.1960347e+00 1.0221893e+01
1.2827188e+01 8.1969676e+00 1.0086219e+01
1.2827188e+01 8.1969676e+00 1.0086219e+01
1.2931992e+01 8.2245097e+00 9.9434341e+00
1.3036158e+01 8.2481488e+00 9.7994831e+00
1.3139684e+01 8.2678848e+00 9.6543662e+00
1.3242570e+01 8.2837177e+00 9.5080834e+00
1.3344818e+01 8.2956476e+00 9.3606347e+00
1.3446426e+01 8.3036744e+00 9.2120201e+00
1.3446426e+01 8.3036744e+00 9.2120201e+00
1.3336057e+01 8.2267184e+00 9.0815129e+00
1.3225412e+01 8.1455542e+00 8.9545937e+00
1.3114488e+01 8.0601818e+00 8.8312624e+00
1.3003287e+01 7.9706013e+00 8.7115192e+00
1.2891809e+01 7.8768125e+00 8.5953639e+00
1.2780053e+01 7.7788156e+00 8.4827966e+00
1.2780053e+01 7.7788156e+00 8.4827966e+00
1.2667023e+01 7.7024312e+00 8.3558721e+00
1.2557368e+01 7.6245022e+00 8.2273501e+00
1.2451089e+01 7.5450287e+00 8.0972308e+00
1.2348184e+01 7.4640107e+00 7.9655142e+00
1.2248655e+01 7.3814481e+00 7.8322001e+00
1.2152500e+01 7.2973410e+00 7.6972888e+00
1.2152500e+01 7.2973410e+00 7.6972888e+00
1.2061615e+01 7.2171857e+00 7.5556585e+00
1.1977955e+01 7.1346838e+00 7.4119883e+00
1.1901519e+01 7.0498355e+00 7.2662783e+00
1.1832307e+01 6.9626405e+00 7.1185283e+00
1.1770320e+01 6.8730991e+00 6.9687384e+00
1.1715557e+01 6.7812111e+00 6.8169086e+00
1.1715557e+01 6.7812111e+00 6.8169086e+00
1.1675281e+01 6.6867664e+00 6.6633829e+00
1.1643325e+01 6.5907776e+00 6.5096221e+00
1.1619689e+01 6.4932445e+00 6.3556261e+00
1.1604373e+01 6.3941672e+00 6.2013951e+00
1.1597378e+01 6.2935457e+00 6.0469289e+00
1.1598703e+01 6.1913800e+00 5.8922277e+00
1.1598703e+01 6.1913800e+00 5.8922277e+00
1.1608977e+01 6.0877207e+00 5.7394444e+00
1.1626007e+01 5.9822031e+00 5.5894346e+00
1.1649791e+01 5.8748275e+00 5.4421982e+00
1.1680331e+01 5.7655936e+00 5.2977352e+00
1.1717626e+01 5.6545015e+00 5.1560457e+00
1.1761676e+01 5.5415512e+00 5.0171296e+00
1.1761676e+01 5.5415512e+00 5.0171296e+00
1.1807836e+01 5.4275117e+00 4.8805076e+00
1.1855596e+01 5.3128075e+00 4.7450512e+00
1.1904957e+01 5.1974385e+00 4.6107606e+00
1.1955918e+01 5.0814046e+00 4.4776357e+00
1.2008480e+01 4.9647060e+00 4.3456765e+00
1.2062643e+01 4.8473426e+00 4.2148830e+00
1.2062643e+01 4.8473426e+00 4.2148830e+00
1.2115438e+01 4.7286817e+00 4.0850614e+00
1.2164842e+01 4.6071865e+00 3.9564024e+00
1.2210854e+01 4.4828569e+00 3.8289060e+00
1.2253475e+01 4.3556929e+00 3.7025722e+00
1.2292703e+01 4.2256946e+00 3.5774011e+00
1.2328540e+01 4.0928620e+00 3.4533925e+00
1.2328540e+01 4.0928620e+00 3.4533925e+00
1.2359843e+01 3.9572049e+00 3.3308918e+00
1.2384311e+01 3.8205441e+00 3.2087212e+00
1.2401945e+01 3.6828794e+00 3.0868808e+00
1.2412743e+01 3.5442109e+00 2.9653704e+00
1.2416707e+01 3.4045386e+00 2.8441901e+00
1.2413836e+01 3.2638625e+00 2.7233400e+00
1.2413836e+01 3.2638625e+00 2.7233400e+00
1.2402797e+01 3.1208836e+00 2.6045996e+00
1.2383526e+01 2.9777723e+00 2.4880541e+00
1.2356025e+01 2.8345288e+00 2.3737035e+00
1.2320292e+01 2.6911529e+00 2.2615478e+00
1.2276328e+01 2.5476448e+00 2.1515870e+00
1.2224133e+01 2.4040043e+00 2.0438210e+00
1.2224133e+01 2.4040043e+00 2.0438210e+00
1.2164350e+01 2.2643551e+00 1.9352007e+00
1.2098947e+01 2.1258158e+00 1.8288317e+00
1.2027924e+01 1.9883867e+00 1.7247139e+00
1.1951280e+01 1.8520675e+00 1.6228474e+00
1.1869015e+01 1.7168584e+00 1.5232322e+00
1.1781131e+01 1.5827593e+00 1.4258682e+00
1.1781131e+01 1.5827593e+00 1.4258682e+00
1.1684027e+01 1.4510997e+00 1.3333382e+00
1.1584243e+01 1.3203488e+00 1.2427864e+00
1.1481779e+01 1.1905065e+00 1.1542128e+00
1.1376636e+01 1.0615730e+00 1.0676176e+00
1.1268813e+01 9.3354809e-01 9.8300051e-01
1.1158310e+01 8.0643191e-01 9.0036170e-01
1.1158310e+01 8.0643191e-01 9.0036170e-01
1.1049165e+01 6.7609653e-01 8.1800646e-01
1.0939696e+01 5.4606509e-01 7.3625338e-01
1.0829903e+01 4.1633760e-01 6.5510249e-01
1.0719786e+01 2.8691406e-01 5.7455376e-01
1.0609346e+01 1.5779446e-01 4.9460721e-01
1.0498582e+01 2.8978800e-02 4.1526283e-01
3.8819000e+00 6.4082221e+00 1.1752869e+01
3.8367575e+00 6.3582131e+00 1.1573797e+01
3.7904875e+00 6.3024889e+00 1.1397086e+01
3.7430898e+00 6.2410495e+00 1.1222736e+01
3.6945645e+00 6.1738950e+00 1.1050747e+01
3.6449117e+00 6.1010252e+00 1.0881119e+01
3.5941312e+00 6.0224403e+00 1.0713852e+01
3.5941312e+00 6.0224403e+00 1.0713852e+01
3.5561696e+00 5.9620043e+00 1.0536183e+01
3.5240374e+00 5.8993953e+00 1.0358634e+01
3.4977346e+00 5.8346131e+00 1.0181205e+01
3.4772612e+00 5.7676578e+00 1.0003895e+01
3.4626172e+00 5.6985294e+00 9.8267052e+00
3.4538026e+00 5.6272279e+00 9.6496352e+00
3.4538026e+00 5.6272279e+00 9.6496352e+00
3.4541467e+00 5.5509328e+00 9.4737196e+00
3.4622117e+00 5.4711032e+00 9.3007978e+00
3.4779976e+00 5.3877390e+00 9.1308700e+00
3.5015043e+00 5.3008401e+00 8.9639360e+00
3.5327318e+00 5.2104066e+00 8.7999958e+00
3.5716802e+00 5.1164385e+00 8.6390495e+00
3.5716802e+00 5.1164385e+00 8.6390495e+00
3.6299195e+00 5.0153919e+00 8.4863631e+00
3.7005567e+00 4.9119542e+00 8.3443930e+00
3.7835916e+00 4.8061253e+00 8.2131392e+00
3.8790243e+00 4.6979052e+00 8.0926016e+00
3.9868549e+00 4.5872941e+00 7.9827804e+00
4.1070833e+00 4.4742917e+00 7.8836754e+00
4.1070833e+00 4.4742917e+00 7.8836754e+00
4.2246932e+00 4.3625394e+00 7.7856985e+00
4.3424625e+00 4.2501660e+00 7.6887935e+00
4.4603912e+00 4.1371714e+00 7.5929605e+00
4.5784793e+00 4.0235556e+00 7.4981994e+00
4.6967267e+00 3.9093187e+00 7.4045102e+00
4.8151335e+00 3.7944606e+00 7.3118930e+00
4.8151335e+00 3.7944606e+00 7.3118930e+00
4.9350992e+00 3.6766953e+00 7.2236013e+00
5.0503958e+00 3.5562964e+00 7.1333048e+00
5.1610232e+00 3.4332637e+00 7.0410036e+00
5.2669816e+00 3.3075972e+00 6.9466976e+00
5.3682708e+00 3.1792971e+00 6.8503870e+00
5.4648909e+00 3.0483632e+00 6.7520716e+00
5.4648909e+00 3.0483632e+00 6.7520716e+00
5.5529482e+00 2.9153456e+00 6.6470954e+00
5.6299505e+00 2.7815096e+00 6.5368685e+00
5.6958978e+00 2.6468552e+00 6.4213911e+00
5.7507899e+00 2.5113824e+00 6.3006631e+00
5.7946271e+00 2.3750912e+00 6.1746845e+00
5.8274092e+00 2.2379816e+00 6.0434553e+00
5.8274092e+00 2.2379816e+00 6.0434553e+00
5.8424716e+00 2.1022347e+00 5.9074628e+00
5.8468311e+00 1.9679860e+00 5.7708452e+00
5.8404878e+00 1.8352356e+00 5.6336025e+00
5.8234416e+00 1.7039835e+00 5.4957346e+00
5.7956926e+00 1.5742297e+00 5.3572417e+00
5.7572406e+00 1.4459742e+00 5.2181237e+00
5.7572406e+00 1.4459742e+00 5.2181237e+00
5.7130504e+00 1.3216465e+00 5.0772146e+00
5.6646472e+00 1.1991735e+00 4.9363127e+00
5.6120310e+00 1.0785553e+00 4.7954180e+00
5.5552018e+00 9.5979190e-01 4.6545305e+00
5.4941596e+00 8.4288325e-01 4.5136502e+00
5.4289044e+00 7.2782936e-01 4.3727770e+00
5.4289044e+00 7.2782936e-01 4.3727770e+00
5.3621176e+00 6.0831494e-01 4.2364449e+00
5.2943898e+00 4.8863266e-01 4.1006374e+00
5.2257211e+00 3.6878252e-01 3.9653544e+00
5.1561114e+00 2.4876453e-01 3.8305959e+00
5.0855607e+00 1.2857868e-01 3.6963619e+00
5.0140690e+00 8.2249700e-03 3.5626525e+00
2.6606900e+00 6.2195444e+00 1.3832774e+01
2.7407263e+00 6.3298419e+00 1.3691283e+01
2.8323567e+00 6.4378248e+00 1.3559191e+01
2.9355811e+00 6.5434932e+00 1.3436498e+01
3.0503994e+00 6.6468470e+00 1.3323204e+01
3.1768118e+00 6.7478862e+00 1.3219309e+01
3.3148182e+00 6.8466109e+00 1.3124813e+01
3.3148182e+00 6.8466109e+00 1.3124813e+01
3.4828563e+00 6.9268749e+00 1.3069093e+01
3.6562736e+00 6.9961104e+00 1.3025525e+01
3.8350700e+00 7.0543174e+00 1.2994111e+01
4.0192455e+00 7.1014959e+00 1.2974850e+01
4.2088002e+00 7.1376459e+00 1.2967742e+01
4.4037340e+00 7.1627674e+00 1.2972787e+01
4.4037340e+00 7.1627674e+00 1.2972787e+01
4.5993102e+00 7.1798004e+00 1.2978448e+01
4.7908204e+00 7.1976523e+00 1.2966764e+01
4.9782648e+00 7.2163229e+00 1.2937734e+01
5.1616432e+00 7.2358124e+00 1.2891359e+01
5.3409558e+00 7.2561207e+00 1.2827640e+01
5.5162025e+00 7.2772478e+00 1.2746575e+01
5.5162025e+00 7.2772478e+00 1.2746575e+01
5.6644871e+00 7.3059643e+00 1.2623626e+01
5.8014018e+00 7.3315497e+00 1.2490609e+01
5.9269467e+00 7.3540039e+00 1.2347526e+01
6.0411217e+00 7.3733269e+00 1.2194376e+01
[...]
POINT_DATA 4361
VECTORS U float
2.9384600e+00 9.3973100e-01 -9.3844600e-03
2.9605156e+00 9.1750022e-01 2.7142889e-03
2.9811389e+00 8.9321456e-01 1.3027742e-02
3.0003300e+00 8.6687400e-01 2.1555900e-02
3.0180889e+00 8.3847856e-01 2.8298762e-02
3.0344156e+00 8.0802822e-01 3.3256329e-02
3.0493100e+00 7.7552300e-01 3.6428600e-02
3.0493100e+00 7.7552300e-01 3.6428600e-02
3.0607200e+00 7.5195756e-01 3.9142200e-02
3.0705033e+00 7.2689389e-01 3.8744267e-02
3.0786600e+00 7.0033200e-01 3.5234800e-02
3.0851900e+00 6.7227189e-01 2.8613800e-02
3.0900933e+00 6.4271356e-01 1.8881267e-02
3.0933700e+00 6.1165700e-01 6.0372000e-03
3.0933700e+00 6.1165700e-01 6.0372000e-03
3.1017467e+00 5.7521400e-01 -8.9258333e-04
3.1091933e+00 5.4100567e-01 -3.9233333e-03
3.1157100e+00 5.0903200e-01 -3.0550500e-03
3.1212967e+00 4.7929300e-01 1.7122667e-03
3.1259533e+00 4.5178867e-01 1.0378617e-02
3.1296800e+00 4.2651900e-01 2.2944000e-02
3.1296800e+00 4.2651900e-01 2.2944000e-02
3.1325978e+00 4.0191967e-01 2.5567456e-02
3.1350744e+00 3.7903867e-01 2.7776089e-02
3.1371100e+00 3.5787600e-01 2.9569900e-02
3.1387044e+00 3.3843167e-01 3.0948889e-02
3.1398578e+00 3.2070567e-01 3.1913056e-02
3.1405700e+00 3.0469800e-01 3.2462400e-02
3.1405700e+00 3.0469800e-01 3.2462400e-02
3.1404567e+00 2.8943867e-01 3.5609822e-02
3.1403100e+00 2.7524200e-01 3.8173689e-02
3.1401300e+00 2.6210800e-01 4.0154000e-02
3.1399167e+00 2.5003667e-01 4.1550756e-02
3.1396700e+00 2.3902800e-01 4.2363956e-02
3.1393900e+00 2.2908200e-01 4.2593600e-02
3.1393900e+00 2.2908200e-01 4.2593600e-02
3.1389978e+00 2.1919411e-01 4.3132733e-02
3.1381711e+00 2.1064078e-01 4.2140500e-02
3.1369100e+00 2.0342200e-01 3.9616900e-02
3.1352144e+00 1.9753778e-01 3.5561933e-02
3.1330844e+00 1.9298811e-01 2.9975600e-02
3.1305200e+00 1.8977300e-01 2.2857900e-02
3.1305200e+00 1.8977300e-01 2.2857900e-02
3.1276967e+00 1.8795144e-01 1.6277626e-02
3.1231200e+00 1.9012944e-01 8.5747942e-03
3.1167900e+00 1.9630700e-01 -2.5059400e-04
3.1087067e+00 2.0648411e-01 -1.0198539e-02
3.0988700e+00 2.2066078e-01 -2.1269041e-02
3.0872800e+00 2.3883700e-01 -3.3462100e-02
3.0872800e+00 2.3883700e-01 -3.3462100e-02
3.0674733e+00 2.8405578e-01 -4.8591000e-02
3.0496667e+00 3.2567111e-01 -6.2567933e-02
3.0338600e+00 3.6368300e-01 -7.5392900e-02
3.0200533e+00 3.9809144e-01 -8.7065900e-02
3.0082467e+00 4.2889644e-01 -9.7586933e-02
2.9984400e+00 4.5609800e-01 -1.0695600e-01
2.9984400e+00 4.5609800e-01 -1.0695600e-01
2.9829333e+00 4.4278989e-01 -9.3223322e-02
2.9658067e+00 4.2578822e-01 -7.5293489e-02
2.9470600e+00 4.0509300e-01 -5.3166500e-02
2.9266933e+00 3.8070422e-01 -2.6842356e-02
2.9047067e+00 3.5262189e-01 3.6789444e-03
2.8811000e+00 3.2084600e-01 3.8397400e-02
2.8811000e+00 3.2084600e-01 3.8397400e-02
2.8537033e+00 3.1173356e-01 6.0094778e-02
2.8249133e+00 3.0263522e-01 8.1753644e-02
2.7947300e+00 2.9355100e-01 1.0337400e-01
2.7631533e+00 2.8448089e-01 1.2495584e-01
2.7301833e+00 2.7542489e-01 1.4649918e-01
2.6958200e+00 2.6638300e-01 1.6800400e-01
2.6958200e+00 2.6638300e-01 1.6800400e-01
2.6596522e+00 2.6357844e-01 1.8507122e-01
2.6214089e+00 2.6046744e-01 2.0084722e-01
2.5810900e+00 2.5705000e-01 2.1533200e-01
2.5386956e+00 2.5332611e-01 2.2852556e-01
2.4942256e+00 2.4929578e-01 2.4042789e-01
2.4476800e+00 2.4495900e-01 2.5103900e-01
2.4476800e+00 2.4495900e-01 2.5103900e-01
2.4032456e+00 2.3997600e-01 2.5921467e-01
2.3572522e+00 2.3442633e-01 2.6476833e-01
2.3097000e+00 2.2831000e-01 2.6770000e-01
2.2605889e+00 2.2162700e-01 2.6800967e-01
2.2099189e+00 2.1437733e-01 2.6569733e-01
2.1576900e+00 2.0656100e-01 2.6076300e-01
2.1576900e+00 2.0656100e-01 2.6076300e-01
2.1062667e+00 1.9735367e-01 2.5366933e-01
2.0562267e+00 1.8668133e-01 2.4617167e-01
2.0075700e+00 1.7454400e-01 2.3827000e-01
1.9602967e+00 1.6094167e-01 2.2996433e-01
1.9144067e+00 1.4587433e-01 2.2125467e-01
1.8699000e+00 1.2934200e-01 2.1214100e-01
1.8699000e+00 1.2934200e-01 2.1214100e-01
1.8246367e+00 1.1214300e-01 2.0251111e-01
1.7794600e+00 9.5287533e-02 1.9205111e-01
1.7343700e+00 7.8775600e-02 1.8076100e-01
1.6893667e+00 6.2607200e-02 1.6864078e-01
1.6444500e+00 4.6782333e-02 1.5569044e-01
1.5996200e+00 3.1301000e-02 1.4191000e-01
1.5996200e+00 3.1301000e-02 1.4191000e-01
1.5534267e+00 1.5968756e-02 1.2782918e-01
1.5053633e+00 -9.3944444e-05 1.1416951e-01
1.4554300e+00 -1.6887100e-02 1.0093100e-01
1.4036267e+00 -3.4410711e-02 8.8113644e-02
1.3499533e+00 -5.2664778e-02 7.5717444e-02
1.2944100e+00 -7.1649300e-02 6.3742400e-02
1.2944100e+00 -7.1649300e-02 6.3742400e-02
1.2372072e+00 -9.0625056e-02 5.3222164e-02
1.1785506e+00 -1.0741829e-01 4.3061198e-02
1.1184400e+00 -1.2202900e-01 3.3259500e-02
1.0568756e+00 -1.3445719e-01 2.3817071e-02
9.9385722e-01 -1.4470286e-01 1.4733911e-02
9.2938500e-01 -1.5276600e-01 6.0100200e-03
9.2938500e-01 -1.5276600e-01 6.0100200e-03
8.6489822e-01 -1.5909811e-01 -1.6492667e-04
8.0206822e-01 -1.6309844e-01 -4.7850533e-03
7.4089500e-01 -1.6476700e-01 -7.8503600e-03
6.8137856e-01 -1.6410378e-01 -9.3608467e-03
6.2351889e-01 -1.6110878e-01 -9.3165133e-03
5.6731600e-01 -1.5578200e-01 -7.7173600e-03
5.6731600e-01 -1.5578200e-01 -7.7173600e-03
5.1590744e-01 -1.4552184e-01 -8.7420000e-03
4.6818244e-01 -1.3466018e-01 -9.6111133e-03
4.2414100e-01 -1.2319700e-01 -1.0324700e-02
3.8378311e-01 -1.1113231e-01 -1.0882760e-02
3.4710878e-01 -9.8466111e-02 -1.1285293e-02
3.1411800e-01 -8.5198400e-02 -1.1532300e-02
3.1411800e-01 -8.5198400e-02 -1.1532300e-02
2.7898211e-01 -7.1482149e-02 -9.4857256e-03
2.4593544e-01 -5.8217849e-02 -7.1939056e-03
2.1497800e-01 -4.5405500e-02 -4.6568400e-03
1.8610978e-01 -3.3045102e-02 -1.8745289e-03
1.5933078e-01 -2.1136656e-02 1.1530278e-03
1.3464100e-01 -9.6801600e-03 4.4258300e-03
1.3464100e-01 -9.6801600e-03 4.4258300e-03
1.1382414e-01 -2.6411222e-03 6.7755167e-03
9.4026044e-02 4.1595644e-03 9.1425400e-03
7.5246700e-02 1.0721900e-02 1.1526900e-02
5.7486111e-02 1.7045884e-02 1.3928597e-02
4.0744278e-02 2.3131518e-02 1.6347630e-02
2.5021200e-02 2.8978800e-02 1.8784000e-02
2.6637800e+00 1.1967100e+00 1.0831400e-01
2.6412244e+00 1.1829322e+00 1.1676267e-01
2.6152411e+00 1.1640256e+00 1.2765300e-01
2.5858300e+00 1.1399900e+00 1.4098500e-01
2.5529911e+00 1.1108256e+00 1.5675867e-01
2.5167244e+00 1.0765322e+00 1.7497400e-01
2.4770300e+00 1.0371100e+00 1.9563100e-01
2.4770300e+00 1.0371100e+00 1.9563100e-01
2.4456622e+00 1.0170412e+00 2.0648967e-01
2.4121622e+00 9.9664789e-01 2.1641300e-01
2.3765300e+00 9.7593000e-01 2.2540100e-01
2.3387656e+00 9.5488756e-01 2.3345367e-01
2.2988689e+00 9.3352056e-01 2.4057100e-01
2.2568400e+00 9.1182900e-01 2.4675300e-01
2.2568400e+00 9.1182900e-01 2.4675300e-01
2.2112244e+00 8.8794411e-01 2.5164156e-01
2.1616944e+00 8.6271744e-01 2.5347656e-01
2.1082500e+00 8.3614900e-01 2.5225800e-01
2.0508911e+00 8.0823878e-01 2.4798589e-01
1.9896178e+00 7.7898678e-01 2.4066022e-01
1.9244300e+00 7.4839300e-01 2.3028100e-01
1.9244300e+00 7.4839300e-01 2.3028100e-01
1.8676400e+00 7.1227800e-01 2.1818467e-01
1.8171367e+00 6.7507033e-01 2.0965900e-01
1.7729200e+00 6.3677000e-01 2.0470400e-01
1.7349900e+00 5.9737700e-01 2.0331967e-01
1.7033467e+00 5.5689133e-01 2.0550600e-01
1.6779900e+00 5.1531300e-01 2.1126300e-01
1.6779900e+00 5.1531300e-01 2.1126300e-01
1.6476878e+00 4.7597578e-01 2.1265478e-01
1.6164544e+00 4.3766511e-01 2.1196578e-01
1.5842900e+00 4.0038100e-01 2.0919600e-01
1.5511944e+00 3.6412344e-01 2.0434544e-01
1.5171678e+00 3.2889244e-01 1.9741411e-01
1.4822100e+00 2.9468800e-01 1.8840200e-01
1.4822100e+00 2.9468800e-01 1.8840200e-01
1.4493167e+00 2.5962322e-01 1.8263456e-01
1.4139667e+00 2.2481956e-01 1.7561656e-01
1.3761600e+00 1.9027700e-01 1.6734800e-01
1.3358967e+00 1.5599556e-01 1.5782889e-01
1.2931767e+00 1.2197522e-01 1.4705922e-01
1.2480000e+00 8.8216000e-02 1.3503900e-01
1.2480000e+00 8.8216000e-02 1.3503900e-01
1.1978106e+00 5.6333183e-02 1.1923677e-01
1.1439906e+00 2.7650847e-02 1.0252190e-01
1.0865400e+00 2.1689900e-03 8.4894400e-02
1.0254589e+00 -2.0112387e-02 6.6354267e-02
9.6074722e-01 -3.9193283e-02 4.6901500e-02
8.9240500e-01 -5.5073700e-02 2.6536100e-02
8.9240500e-01 -5.5073700e-02 2.6536100e-02
8.1876067e-01 -6.4976478e-02 8.1253111e-03
7.4697500e-01 -7.1823744e-02 -6.8432889e-03
6.7704800e-01 -7.5615500e-02 -1.8369700e-02
6.0897967e-01 -7.6351744e-02 -2.6453922e-02
5.4277000e-01 -7.4032478e-02 -3.1095956e-02
4.7841900e-01 -6.8657700e-02 -3.2295800e-02
4.7841900e-01 -6.8657700e-02 -3.2295800e-02
4.2142344e-01 -6.0745044e-02 -3.3583367e-02
3.6833844e-01 -5.2170544e-02 -3.4154867e-02
3.1916400e-01 -4.2934200e-02 -3.4010300e-02
2.7390011e-01 -3.3036011e-02 -3.3149667e-02
2.3254678e-01 -2.2475978e-02 -3.1572967e-02
1.9510400e-01 -1.1254100e-02 -2.9280200e-02
1.9510400e-01 -1.1254100e-02 -2.9280200e-02
1.6053936e-01 -6.0311633e-03 -2.2873500e-02
1.2732493e-01 -1.5987967e-03 -1.6003667e-02
9.5460700e-02 2.0430000e-03 -8.6707000e-03
6.4946676e-02 4.8942267e-03 -8.7460000e-04
3.5782856e-02 6.9548833e-03 7.3846333e-03
7.9692400e-03 8.2249700e-03 1.6107000e-02
2.6606900e+00 1.2498400e+00 -8.7008500e-02
2.6900289e+00 1.2570633e+00 -6.9112688e-02
2.7175989e+00 1.2605367e+00 -5.1961088e-02
2.7434000e+00 1.2602600e+00 -3.5553700e-02
2.7674322e+00 1.2562333e+00 -1.9890524e-02
2.7896956e+00 1.2484567e+00 -4.9715611e-03
2.8101900e+00 1.2369300e+00 9.2031900e-03
2.8101900e+00 1.2369300e+00 9.2031900e-03
2.8264344e+00 1.2127300e+00 1.7543460e-02
2.8409711e+00 1.1862900e+00 2.1957596e-02
2.8538000e+00 1.1576100e+00 2.2445600e-02
2.8649211e+00 1.1266900e+00 1.9007470e-02
2.8743344e+00 1.0935300e+00 1.1643208e-02
2.8820400e+00 1.0581300e+00 3.5281200e-04
2.8820400e+00 1.0581300e+00 3.5281200e-04
2.8888344e+00 1.0194009e+00 -9.3547822e-03
2.8941944e+00 9.8635289e-01 -1.7554453e-02
2.8981200e+00 9.5898600e-01 -2.4246200e-02
2.9006111e+00 9.3730022e-01 -2.9430024e-02
2.9016678e+00 9.2129556e-01 -3.3105924e-02
2.9012900e+00 9.1097200e-01 -3.5273900e-02
2.9012900e+00 9.1097200e-01 -3.5273900e-02
2.9037322e+00 9.1623656e-01 -3.1914893e-02
2.9076756e+00 9.2131256e-01 -2.8173527e-02
2.9131200e+00 9.2620000e-01 -2.4049800e-02
2.9200656e+00 9.3089889e-01 -1.9543713e-02
2.9285122e+00 9.3540922e-01 -1.4655267e-02
2.9384600e+00 9.3973100e-01 -9.3844600e-03
2.6103400e+00 1.2279600e+00 1.2528600e-02
2.6230244e+00 1.2292656e+00 3.7525889e-02
2.6341978e+00 1.2279656e+00 5.8909956e-02
2.6438600e+00 1.2240600e+00 7.6680800e-02
2.6520111e+00 1.2175489e+00 9.0838422e-02
2.6586511e+00 1.2084322e+00 1.0138282e-01
2.6637800e+00 1.1967100e+00 1.0831400e-01
2.9984400e+00 4.5609800e-01 -1.0695600e-01
2.9612322e+00 4.0684267e-01 -1.0296968e-01
2.9222256e+00 3.5901233e-01 -9.7003078e-02
2.8814200e+00 3.1260700e-01 -8.9056200e-02
2.8388156e+00 2.6762667e-01 -7.9129044e-02
2.7944122e+00 2.2407133e-01 -6.7221611e-02
2.7482100e+00 1.8194100e-01 -5.3333900e-02
2.7482100e+00 1.8194100e-01 -5.3333900e-02
2.7213456e+00 1.5474818e-01 -4.5011678e-02
2.6922822e+00 1.3062684e-01 -3.4320911e-02
2.6610200e+00 1.0957700e-01 -2.1261600e-02
2.6275589e+00 9.1598644e-02 -5.8337444e-03
2.5918989e+00 7.6691778e-02 1.1962656e-02
2.5540400e+00 6.4856400e-02 3.2127600e-02
2.5540400e+00 6.4856400e-02 3.2127600e-02
2.5102178e+00 5.1686163e-02 5.0592944e-02
2.4657444e+00 3.9820730e-02 6.6724111e-02
2.4206200e+00 2.9260100e-02 8.0521100e-02
2.3748444e+00 2.0004273e-02 9.1983911e-02
2.3284178e+00 1.2053250e-02 1.0111254e-01
2.2813400e+00 5.4070300e-03 1.0790700e-01
2.2813400e+00 5.4070300e-03 1.0790700e-01
2.2260689e+00 -3.9089444e-04 1.1036884e-01
2.1707056e+00 -5.2562044e-03 1.1016984e-01
2.1152500e+00 -9.1889000e-03 1.0731000e-01
2.0597022e+00 -1.2188981e-02 1.0178931e-01
2.0040622e+00 -1.4256448e-02 9.3607778e-02
1.9483300e+00 -1.5391300e-02 8.2765400e-02
1.9483300e+00 -1.5391300e-02 8.2765400e-02
1.9004167e+00 -1.3176239e-02 7.4458178e-02
1.8537700e+00 -9.9617289e-03 6.5833544e-02
1.8083900e+00 -5.7477700e-03 5.6891500e-02
1.7642767e+00 -5.3436222e-04 4.7632044e-02
1.7214300e+00 5.6784944e-03 3.8055178e-02
1.6798500e+00 1.2890800e-02 2.8160900e-02
1.6798500e+00 1.2890800e-02 2.8160900e-02
1.6379011e+00 1.8601911e-02 1.6534594e-02
1.5957178e+00 2.4869678e-02 4.8491444e-03
1.5533000e+00 3.1694100e-02 -6.8954500e-03
1.5106478e+00 3.9075178e-02 -1.8699189e-02
1.4677611e+00 4.7012911e-02 -3.0562072e-02
1.4246400e+00 5.5507300e-02 -4.2484100e-02
1.4246400e+00 5.5507300e-02 -4.2484100e-02
1.3841611e+00 6.2443333e-02 -5.3504467e-02
1.3413311e+00 7.0773333e-02 -6.3323533e-02
1.2961500e+00 8.0497300e-02 -7.1941300e-02
1.2486178e+00 9.1615233e-02 -7.9357767e-02
1.1987344e+00 1.0412713e-01 -8.5572933e-02
1.1465000e+00 1.1803300e-01 -9.0586800e-02
1.1465000e+00 1.1803300e-01 -9.0586800e-02
1.0881656e+00 1.3549922e-01 -9.3861911e-02
1.0298672e+00 1.5001522e-01 -9.6019844e-02
9.7160500e-01 1.6158100e-01 -9.7060600e-02
9.1337889e-01 1.7019656e-01 -9.6984178e-02
8.5518889e-01 1.7586189e-01 -9.5790578e-02
7.9703500e-01 1.7857700e-01 -9.3479800e-02
7.9703500e-01 1.7857700e-01 -9.3479800e-02
7.3374311e-01 1.7824200e-01 -9.0378400e-02
6.7310911e-01 1.7576067e-01 -8.5257167e-02
6.1513300e-01 1.7113300e-01 -7.8116100e-02
5.5981478e-01 1.6435900e-01 -6.8955200e-02
5.0715444e-01 1.5543867e-01 -5.7774467e-02
4.5715200e-01 1.4437200e-01 -4.4573900e-02
4.5715200e-01 1.4437200e-01 -4.4573900e-02
4.0309456e-01 1.3467277e-01 -2.1334878e-02
3.5147856e-01 1.2370743e-01 1.4155556e-04
3.0230400e-01 1.1147600e-01 1.9855400e-02
2.5557089e-01 9.7978467e-02 3.7806656e-02
2.1127922e-01 8.3214833e-02 5.3995322e-02
1.6942900e-01 6.7185100e-02 6.8421400e-02
1.6942900e-01 6.7185100e-02 6.8421400e-02
1.4855777e-01 5.7087411e-02 5.8495188e-02
1.2615610e-01 4.5145778e-02 4.7931921e-02
1.0222400e-01 3.1360200e-02 3.6731600e-02
7.6761467e-02 1.5730678e-02 2.4894224e-02
4.9768500e-02 -1.7427889e-03 1.2419794e-02
2.1245100e-02 -2.1060200e-02 -6.9169100e-04
9.1664700e+00 5.7325900e-01 1.4126500e-01
9.1454967e+00 5.2312444e-01 1.5574011e-01
9.1234300e+00 4.7506678e-01 1.6985511e-01
9.1002700e+00 4.2908600e-01 1.8361000e-01
9.0760167e+00 3.8518211e-01 1.9700478e-01
9.0506700e+00 3.4335511e-01 2.1003944e-01
9.0242300e+00 3.0360500e-01 2.2271400e-01
9.0242300e+00 3.0360500e-01 2.2271400e-01
9.0000478e+00 2.7521400e-01 2.3282356e-01
8.9746411e+00 2.5412933e-01 2.4186056e-01
8.9480100e+00 2.4035100e-01 2.4982500e-01
8.9201544e+00 2.3387900e-01 2.5671689e-01
8.8910744e+00 2.3471333e-01 2.6253622e-01
8.8607700e+00 2.4285400e-01 2.6728300e-01
8.8607700e+00 2.4285400e-01 2.6728300e-01
8.8322733e+00 2.4935922e-01 2.6978644e-01
8.8017600e+00 2.5702522e-01 2.7236044e-01
8.7692300e+00 2.6585200e-01 2.7500500e-01
8.7346833e+00 2.7583956e-01 2.7772011e-01
8.6981200e+00 2.8698789e-01 2.8050578e-01
8.6595400e+00 2.9929700e-01 2.8336200e-01
8.6595400e+00 2.9929700e-01 2.8336200e-01
8.6074844e+00 3.1561989e-01 2.9054000e-01
8.5574611e+00 3.2390622e-01 2.9747667e-01
8.5094700e+00 3.2415600e-01 3.0417200e-01
8.4635111e+00 3.1636922e-01 3.1062600e-01
8.4195844e+00 3.0054589e-01 3.1683867e-01
8.3776900e+00 2.7668600e-01 3.2281000e-01
8.3776900e+00 2.7668600e-01 3.2281000e-01
8.3437633e+00 2.4826878e-01 3.2073522e-01
8.3115967e+00 2.1940211e-01 3.1579056e-01
8.2811900e+00 1.9008600e-01 3.0797600e-01
8.2525433e+00 1.6032044e-01 2.9729156e-01
8.2256567e+00 1.3010544e-01 2.8373722e-01
8.2005300e+00 9.9441000e-02 2.6731300e-01
8.2005300e+00 9.9441000e-02 2.6731300e-01
8.1684089e+00 1.3149700e-01 2.7052978e-01
8.1329722e+00 1.6188567e-01 2.7225744e-01
8.0942200e+00 1.9060700e-01 2.7249600e-01
8.0521522e+00 2.1766100e-01 2.7124544e-01
8.0067689e+00 2.4304767e-01 2.6850578e-01
7.9580700e+00 2.6676700e-01 2.6427700e-01
7.9580700e+00 2.6676700e-01 2.6427700e-01
7.9094111e+00 2.8356522e-01 2.5200000e-01
7.8629278e+00 2.9380122e-01 2.3738867e-01
7.8186200e+00 2.9747500e-01 2.2044300e-01
7.7764878e+00 2.9458656e-01 2.0116300e-01
7.7365311e+00 2.8513589e-01 1.7954867e-01
7.6987500e+00 2.6912300e-01 1.5560000e-01
7.6987500e+00 2.6912300e-01 1.5560000e-01
7.6635656e+00 2.4459733e-01 1.3866013e-01
7.6258389e+00 2.1980200e-01 1.2081347e-01
7.5855700e+00 1.9473700e-01 1.0206000e-01
7.5427589e+00 1.6940233e-01 8.2399733e-02
7.4974056e+00 1.4379800e-01 6.1832667e-02
7.4495100e+00 1.1792400e-01 4.0358800e-02
7.4495100e+00 1.1792400e-01 4.0358800e-02
7.3925367e+00 9.5673911e-02 1.4605244e-02
7.3327167e+00 8.0739878e-02 -8.2647222e-03
7.2700500e+00 7.3121900e-02 -2.8251100e-02
7.2045367e+00 7.2819978e-02 -4.5353889e-02
7.1361767e+00 7.9834111e-02 -5.9573089e-02
7.0649700e+00 9.4164300e-02 -7.0908700e-02
7.0649700e+00 9.4164300e-02 -7.0908700e-02
6.9974722e+00 1.2030350e-01 -7.3753989e-02
6.9358822e+00 1.4593107e-01 -7.5856922e-02
6.8802000e+00 1.7104700e-01 -7.7217500e-02
6.8304256e+00 1.9565130e-01 -7.7835722e-02
6.7865589e+00 2.1974397e-01 -7.7711589e-02
6.7486000e+00 2.4332500e-01 -7.6845100e-02
6.8897500e+00 3.0679900e-01 -1.2131700e-01
6.8744667e+00 2.9010222e-01 -1.1655388e-01
6.8558867e+00 2.7585256e-01 -1.1073121e-01
6.8340100e+00 2.6405000e-01 -1.0384900e-01
6.8088367e+00 2.5469456e-01 -9.5907244e-02
6.7803667e+00 2.4778622e-01 -8.6905944e-02
6.7486000e+00 2.4332500e-01 -7.6845100e-02
8.7301100e+00 6.1937500e-01 1.6222200e-01
8.7011867e+00 6.0010189e-01 1.4437834e-01
8.6714600e+00 5.8017289e-01 1.2507934e-01
8.6409300e+00 5.5958800e-01 1.0432500e-01
8.6095967e+00 5.3834722e-01 8.2115311e-02
8.5774600e+00 5.1645056e-01 5.8450278e-02
8.5445200e+00 4.9389800e-01 3.3329900e-02
8.5445200e+00 4.9389800e-01 3.3329900e-02
8.5109233e+00 4.6421511e-01 6.8957333e-03
8.4781833e+00 4.3598478e-01 -1.2778967e-02
8.4463000e+00 4.0920700e-01 -2.5694200e-02
8.4152733e+00 3.8388178e-01 -3.1849967e-02
8.3851033e+00 3.6000911e-01 -3.1246267e-02
8.3557900e+00 3.3758900e-01 -2.3883100e-02
8.3557900e+00 3.3758900e-01 -2.3883100e-02
8.3145656e+00 3.3278111e-01 6.7873889e-03
8.2710789e+00 3.3062344e-01 3.7007489e-02
8.2253300e+00 3.3111600e-01 6.6777200e-02
8.1773189e+00 3.3425878e-01 9.6096522e-02
8.1270456e+00 3.4005178e-01 1.2496546e-01
8.0745100e+00 3.4849500e-01 1.5338400e-01
8.0745100e+00 3.4849500e-01 1.5338400e-01
8.0238789e+00 3.5707622e-01 1.8077811e-01
7.9706456e+00 3.6274989e-01 2.0696811e-01
7.9148100e+00 3.6551600e-01 2.3195400e-01
7.8563722e+00 3.6537456e-01 2.5573578e-01
7.7953322e+00 3.6232556e-01 2.7831344e-01
7.7316900e+00 3.5636900e-01 2.9968700e-01
7.7316900e+00 3.5636900e-01 2.9968700e-01
7.6599956e+00 3.2971233e-01 2.8274202e-01
7.5847356e+00 3.1002167e-01 2.5574869e-01
7.5059100e+00 2.9729700e-01 2.1870700e-01
7.4235189e+00 2.9153833e-01 1.7161696e-01
7.3375622e+00 2.9274567e-01 1.1447856e-01
7.2480400e+00 3.0091900e-01 4.7291800e-02
7.2480400e+00 3.0091900e-01 4.7291800e-02
7.1697833e+00 3.0993122e-01 -1.5160556e-03
7.0989433e+00 3.1573056e-01 -4.2041356e-02
7.0355200e+00 3.1831700e-01 -7.4284100e-02
6.9795133e+00 3.1769056e-01 -9.8244289e-02
6.9309233e+00 3.1385122e-01 -1.1392192e-01
6.8897500e+00 3.0679900e-01 -1.2131700e-01
5.1046400e+00 5.8744800e-01 -1.1431600e-01
5.1481789e+00 5.4895289e-01 -1.0386522e-01
5.1995289e+00 5.1133422e-01 -9.6808756e-02
5.2586900e+00 4.7459200e-01 -9.3146600e-02
5.3256622e+00 4.3872622e-01 -9.2878756e-02
5.4004456e+00 4.0373689e-01 -9.6005222e-02
5.4830400e+00 3.6962400e-01 -1.0252600e-01
5.4830400e+00 3.6962400e-01 -1.0252600e-01
5.5743589e+00 3.5899467e-01 -1.0243022e-01
5.6670489e+00 3.5676267e-01 -1.0037056e-01
5.7611100e+00 3.6292800e-01 -9.6347000e-02
5.8565422e+00 3.7749067e-01 -9.0359556e-02
5.9533456e+00 4.0045067e-01 -8.2408222e-02
6.0515200e+00 4.3180800e-01 -7.2493000e-02
6.0515200e+00 4.3180800e-01 -7.2493000e-02
6.1413589e+00 4.6502822e-01 -6.9271033e-02
6.2297656e+00 4.9020056e-01 -6.7572333e-02
6.3167400e+00 5.0732500e-01 -6.7396900e-02
6.4022822e+00 5.1640156e-01 -6.8744733e-02
6.4863922e+00 5.1743022e-01 -7.1615833e-02
6.5690700e+00 5.1041100e-01 -7.6010200e-02
6.5690700e+00 5.1041100e-01 -7.6010200e-02
6.6408389e+00 4.8013344e-01 -8.3926889e-02
6.7052789e+00 4.4839278e-01 -9.1697356e-02
6.7623900e+00 4.1518900e-01 -9.9321600e-02
6.8121722e+00 3.8052211e-01 -1.0679962e-01
6.8546256e+00 3.4439211e-01 -1.1413142e-01
6.8897500e+00 3.0679900e-01 -1.2131700e-01