# vtk DataFile Version 2.0
test
ASCII
DATASET POLYDATA
POINTS 4361 float
5.3337922e+00 7.1209755e+00 1.1858693e+01
5.4472911e+00 7.1770419e+00 1.1734465e+01
5.5624888e+00 7.2319154e+00 1.1611358e+01
5.6793850e+00 7.2855961e+00 1.1489373e+01
5.7979800e+00 7.3380838e+00 1.1368510e+01
5.9182736e+00 7.3893785e+00 1.1248768e+01
6.0402658e+00 7.4394804e+00 1.1130147e+01
6.0402658e+00 7.4394804e+00 1.1130147e+01
6.1655590e+00 7.4966174e+00 1.1015352e+01
6.2968725e+00 7.5520481e+00 1.0908528e+01
6.4342065e+00 7.6057725e+00 1.0809674e+01
6.5775608e+00 7.6577907e+00 1.0718790e+01
6.7269355e+00 7.7081026e+00 1.0635877e+01
6.8823306e+00 7.7567081e+00 1.0560934e+01
6.8823306e+00 7.7567081e+00 1.0560934e+01
7.0493136e+00 7.7991985e+00 1.0508548e+01
7.2182407e+00 7.8394281e+00 1.0471133e+01
7.3891120e+00 7.8773970e+00 1.0448687e+01
7.5619275e+00 7.9131052e+00 1.0441212e+01
7.7366872e+00 7.9465527e+00 1.0448708e+01
7.9133911e+00 7.9777394e+00 1.0471173e+01
7.9133911e+00 7.9777394e+00 1.0471173e+01
8.0881456e+00 8.0047610e+00 1.0495303e+01
8.2625333e+00 8.0297126e+00 1.0523089e+01
8.4365542e+00 8.0525942e+00 1.0554531e+01
8.6102082e+00 8.0734058e+00 1.0589630e+01
8.7834953e+00 8.0921474e+00 1.0628386e+01
8.9564156e+00 8.1088191e+00 1.0670798e+01
8.9564156e+00 8.1088191e+00 1.0670798e+01
9.1291788e+00 8.1235203e+00 1.0714677e+01
9.3028563e+00 8.1361907e+00 1.0754394e+01
9.4774482e+00 8.1468301e+00 1.0789949e+01
9.6529545e+00 8.1554386e+00 1.0821341e+01
9.8293752e+00 8.1620162e+00 1.0848572e+01
1.0006710e+01 8.1665629e+00 1.0871641e+01
1.0006710e+01 8.1665629e+00 1.0871641e+01
1.0186770e+01 8.1682064e+00 1.0885993e+01
1.0365040e+01 8.1678657e+00 1.0886059e+01
1.0541519e+01 8.1655407e+00 1.0871841e+01
1.0716208e+01 8.1612315e+00 1.0843336e+01
1.0889107e+01 8.1549380e+00 1.0800547e+01
1.1060215e+01 8.1466602e+00 1.0743472e+01
1.1060215e+01 8.1466602e+00 1.0743472e+01
1.1224002e+01 8.1360609e+00 1.0668243e+01
1.1379270e+01 8.1264291e+00 1.0581266e+01
1.1526017e+01 8.1177647e+00 1.0482542e+01
1.1664244e+01 8.1100679e+00 1.0372069e+01
1.1793951e+01 8.1033385e+00 1.0249848e+01
1.1915138e+01 8.0975766e+00 1.0115879e+01
1.1915138e+01 8.0975766e+00 1.0115879e+01
1.2022747e+01 8.1107425e+00 9.9735131e+00
1.2129096e+01 8.1212516e+00 9.8300092e+00
1.2234184e+01 8.1291038e+00 9.6853674e+00
1.2338011e+01 8.1342992e+00 9.5395878e+00
1.2440579e+01 8.1368377e+00 9.3926703e+00
1.2541886e+01 8.1367194e+00 9.2446150e+00
1.2541886e+01 8.1367194e+00 9.2446150e+00
1.2436221e+01 8.0635732e+00 9.1109733e+00
1.2330635e+01 7.9870483e+00 8.9795424e+00
1.2225128e+01 7.9071448e+00 8.8503223e+00
1.2119701e+01 7.8238627e+00 8.7233130e+00
1.2014352e+01 7.7372020e+00 8.5985146e+00
1.1909083e+01 7.6471626e+00 8.4759268e+00
1.1909083e+01 7.6471626e+00 8.4759268e+00
1.1803454e+01 7.5732549e+00 8.3431931e+00
1.1701529e+01 7.4982946e+00 8.2085443e+00
1.1603309e+01 7.4222817e+00 8.0719803e+00
1.1508792e+01 7.3452161e+00 7.9335012e+00
1.1417979e+01 7.2670979e+00 7.7931071e+00
1.1330870e+01 7.1879270e+00 7.6507978e+00
1.1330870e+01 7.1879270e+00 7.6507978e+00
1.1250257e+01 7.1099176e+00 7.5032992e+00
1.1177424e+01 7.0296777e+00 7.3540130e+00
1.1112369e+01 6.9472075e+00 7.2029393e+00
1.1055092e+01 6.8625068e+00 7.0500780e+00
1.1005595e+01 6.7755756e+00 6.8954291e+00
1.0963877e+01 6.6864141e+00 6.7389926e+00
1.0963877e+01 6.6864141e+00 6.7389926e+00
1.0934963e+01 6.5948364e+00 6.5816070e+00
1.0915870e+01 6.5017552e+00 6.4247482e+00
1.0906599e+01 6.4071705e+00 6.2684161e+00
1.0907149e+01 6.3110822e+00 6.1126109e+00
1.0917520e+01 6.2134904e+00 5.9573324e+00
1.0937713e+01 6.1143950e+00 5.8025807e+00
1.0937713e+01 6.1143950e+00 5.8025807e+00
1.0966567e+01 6.0142693e+00 5.6507492e+00
1.1001807e+01 5.9127618e+00 5.5019721e+00
1.1043431e+01 5.8098725e+00 5.3562492e+00
1.1091441e+01 5.7056013e+00 5.2135807e+00
1.1145836e+01 5.5999483e+00 5.0739665e+00
1.1206616e+01 5.4929134e+00 4.9374066e+00
1.1206616e+01 5.4929134e+00 4.9374066e+00
1.1270187e+01 5.3854460e+00 4.8031418e+00
1.1335340e+01 5.2771209e+00 4.6704094e+00
1.1402077e+01 5.1679383e+00 4.5392096e+00
1.1470396e+01 5.0578980e+00 4.4095423e+00
1.1540298e+01 4.9470000e+00 4.2814075e+00
1.1611783e+01 4.8352445e+00 4.1548052e+00
1.1611783e+01 4.8352445e+00 4.1548052e+00
1.1682083e+01 4.7214726e+00 4.0295850e+00
1.1749551e+01 4.6050185e+00 3.9052237e+00
1.1814184e+01 4.4858823e+00 3.7817215e+00
1.1875985e+01 4.3640639e+00 3.6590784e+00
1.1934952e+01 4.2395633e+00 3.5372942e+00
1.1991085e+01 4.1123805e+00 3.4163691e+00
1.1991085e+01 4.1123805e+00 3.4163691e+00
1.2042344e+01 3.9822908e+00 3.2958956e+00
1.2086447e+01 3.8502157e+00 3.1756584e+00
1.2123397e+01 3.7161552e+00 3.0556573e+00
1.2153191e+01 3.5801094e+00 2.9358926e+00
1.2175831e+01 3.4420781e+00 2.8163640e+00
1.2191316e+01 3.3020615e+00 2.6970717e+00
1.2191316e+01 3.3020615e+00 2.6970717e+00
1.2198785e+01 3.1588510e+00 2.5797916e+00
1.2197020e+01 3.0150284e+00 2.4644137e+00
1.2186021e+01 2.8705938e+00 2.3509381e+00
1.2165787e+01 2.7255470e+00 2.2393648e+00
1.2136318e+01 2.5798882e+00 2.1296937e+00
1.2097615e+01 2.4336173e+00 2.0219248e+00
1.2097615e+01 2.4336173e+00 2.0219248e+00
1.2049182e+01 2.2908155e+00 1.9138484e+00
1.1994149e+01 2.1492083e+00 1.8081142e+00
1.1932515e+01 2.0087957e+00 1.7047221e+00
1.1864280e+01 1.8695776e+00 1.6036722e+00
1.1789444e+01 1.7315542e+00 1.5049644e+00
1.1708008e+01 1.5947254e+00 1.4085988e+00
1.1708008e+01 1.5947254e+00 1.4085988e+00
1.1618278e+01 1.4602962e+00 1.3162990e+00
1.1525423e+01 1.3268862e+00 1.2260252e+00
1.1429442e+01 1.1944952e+00 1.1377773e+00
1.1330337e+01 1.0631234e+00 1.0515554e+00
1.1228106e+01 9.3277067e-01 9.6735939e-01
1.1122750e+01 8.0343707e-01 8.8518937e-01
1.1122750e+01 8.0343707e-01 8.8518937e-01
1.1018056e+01 6.7196296e-01 8.0416476e-01
1.0912900e+01 5.4067856e-01 7.2370413e-01
1.0807282e+01 4.0958387e-01 6.4380748e-01
1.0701201e+01 2.7867890e-01 5.6447482e-01
1.0594658e+01 1.4796364e-01 4.8570613e-01
1.0487653e+01 1.7438100e-02 4.0750143e-01
3.0486000e+00 6.0717581e+00 1.1744023e+01
3.0099031e+00 6.0262849e+00 1.1562073e+01
2.9710330e+00 5.9765537e+00 1.1381468e+01
2.9319898e+00 5.9225645e+00 1.1202209e+01
2.8927734e+00 5.8643174e+00 1.1024295e+01
2.8533839e+00 5.8018123e+00 1.0847726e+01
2.8138212e+00 5.7350493e+00 1.0672503e+01
2.8138212e+00 5.7350493e+00 1.0672503e+01
2.7845040e+00 5.6812217e+00 1.0490771e+01
2.7616318e+00 5.6252136e+00 1.0309357e+01
2.7452046e+00 5.5670251e+00 1.0128261e+01
2.7352223e+00 5.5066561e+00 9.9474811e+00
2.7316850e+00 5.4441067e+00 9.7670190e+00
2.7345926e+00 5.3793769e+00 9.5868742e+00
2.7345926e+00 5.3793769e+00 9.5868742e+00
2.7491556e+00 5.3091445e+00 9.4085311e+00
2.7727873e+00 5.2354869e+00 9.2340317e+00
2.8054876e+00 5.1584040e+00 9.0633760e+00
2.8472565e+00 5.0778957e+00 8.8965638e+00
2.8980940e+00 4.9939623e+00 8.7335954e+00
2.9580002e+00 4.9066035e+00 8.5744705e+00
2.9580002e+00 4.9066035e+00 8.5744705e+00
3.0341173e+00 4.8143535e+00 8.4241211e+00
3.1208711e+00 4.7203321e+00 8.2837493e+00
3.2182616e+00 4.6245393e+00 8.1533552e+00
3.3262888e+00 4.5269751e+00 8.0329386e+00
3.4449527e+00 4.4276396e+00 7.9224997e+00
3.5742533e+00 4.3265327e+00 7.8220384e+00
3.5742533e+00 4.3265327e+00 7.8220384e+00
3.7021588e+00 4.2260903e+00 7.7235587e+00
3.8306714e+00 4.1247732e+00 7.6269684e+00
3.9597912e+00 4.0225814e+00 7.5322675e+00
4.0895182e+00 3.9195148e+00 7.4394559e+00
4.2198523e+00 3.8155735e+00 7.3485338e+00
4.3507935e+00 3.7107576e+00 7.2595010e+00
4.3507935e+00 3.7107576e+00 7.2595010e+00
4.4834801e+00 3.6036618e+00 7.1749005e+00
4.6125273e+00 3.4939702e+00 7.0885217e+00
4.7379352e+00 3.3816827e+00 7.0003646e+00
4.8597038e+00 3.2667993e+00 6.9104292e+00
4.9778330e+00 3.1493200e+00 6.8187156e+00
5.0923229e+00 3.0292448e+00 6.7252236e+00
5.0923229e+00 3.0292448e+00 6.7252236e+00
5.2002766e+00 2.9065745e+00 6.6255926e+00
5.2979802e+00 2.7816134e+00 6.5207537e+00
5.3854338e+00 2.6543617e+00 6.4107071e+00
5.4626373e+00 2.5248193e+00 6.2954527e+00
5.5295908e+00 2.3929862e+00 6.1749905e+00
5.5862942e+00 2.2588624e+00 6.0493206e+00
5.5862942e+00 2.2588624e+00 6.0493206e+00
5.6246070e+00 2.1232550e+00 5.9178015e+00
5.6508502e+00 1.9886203e+00 5.7845195e+00
5.6650238e+00 1.8549583e+00 5.6494744e+00
5.6671277e+00 1.7222691e+00 5.5126664e+00
5.6571620e+00 1.5905525e+00 5.3740953e+00
5.6351266e+00 1.4598087e+00 5.2337613e+00
5.6351266e+00 1.4598087e+00 5.2337613e+00
5.6052618e+00 1.3335866e+00 5.0914923e+00
5.5700622e+00 1.2091319e+00 4.9492621e+00
5.5295280e+00 1.0864446e+00 4.8070706e+00
5.4836591e+00 9.6552466e-01 4.6649178e+00
5.4324556e+00 8.4637208e-01 4.5228038e+00
5.3759174e+00 7.2898686e-01 4.3807284e+00
5.3759174e+00 7.2898686e-01 4.3807284e+00
5.3177757e+00 6.0836432e-01 4.2424959e+00
5.2585359e+00 4.8770310e-01 4.1046337e+00
5.1981979e+00 3.6700322e-01 3.9671418e+00
5.1367617e+00 2.4626467e-01 3.8300202e+00
5.0742274e+00 1.2548745e-01 3.6932688e+00
5.0105949e+00 4.6715700e-03 3.5568878e+00
1.8280500e+00 5.8806594e+00 1.3871715e+01
1.9006063e+00 5.9886787e+00 1.3724721e+01
1.9852734e+00 6.0952986e+00 1.3587348e+01
2.0820511e+00 6.2005192e+00 1.3459596e+01
2.1909394e+00 6.3043405e+00 1.3341464e+01
2.3119385e+00 6.4067624e+00 1.3232954e+01
2.4450482e+00 6.5077849e+00 1.3134065e+01
2.4450482e+00 6.5077849e+00 1.3134065e+01
2.6096352e+00 6.5937343e+00 1.3075794e+01
2.7801091e+00 6.6690175e+00 1.3030710e+01
2.9564700e+00 6.7336344e+00 1.2998814e+01
3.1387177e+00 6.7875850e+00 1.2980106e+01
3.3268524e+00 6.8308693e+00 1.2974585e+01
3.5208740e+00 6.8634874e+00 1.2982252e+01
3.5208740e+00 6.8634874e+00 1.2982252e+01
3.7157968e+00 6.8889354e+00 1.2990101e+01
3.9067504e+00 6.9136949e+00 1.2980027e+01
4.0937348e+00 6.9377659e+00 1.2952031e+01
4.2767499e+00 6.9611484e+00 1.2906113e+01
4.4557958e+00 6.9838424e+00 1.2842274e+01
4.6308725e+00 7.0058478e+00 1.2760512e+01
4.6308725e+00 7.0058478e+00 1.2760512e+01
4.7771226e+00 7.0318192e+00 1.2634910e+01
4.9117340e+00 7.0550773e+00 1.2499427e+01
5.0347067e+00 7.0756219e+00 1.2354065e+01
5.1460406e+00 7.0934532e+00 1.2198821e+01
[...]
POINT_DATA 4361
VECTORS U float
2.0368900e+00 6.5812700e-01 -8.5641100e-03
2.0545533e+00 6.4269733e-01 9.0170556e-04
2.0712800e+00 6.2575200e-01 9.1697422e-03
2.0870700e+00 6.0729100e-01 1.6240000e-02
2.1019233e+00 5.8731433e-01 2.2112479e-02
2.1158400e+00 5.6582200e-01 2.6787179e-02
2.1288200e+00 5.4281400e-01 3.0264100e-02
2.1288200e+00 5.4281400e-01 3.0264100e-02
2.1389233e+00 5.2564322e-01 3.3344522e-02
2.1478567e+00 5.0723389e-01 3.4269889e-02
2.1556200e+00 4.8758600e-01 3.3040200e-02
2.1622133e+00 4.6669956e-01 2.9655456e-02
2.1676367e+00 4.4457456e-01 2.4115656e-02
2.1718900e+00 4.2121100e-01 1.6420800e-02
2.1718900e+00 4.2121100e-01 1.6420800e-02
2.1792322e+00 3.9443278e-01 1.2736844e-02
2.1857722e+00 3.6925678e-01 1.1250278e-02
2.1915100e+00 3.4568300e-01 1.1961100e-02
2.1964456e+00 3.2371144e-01 1.4869311e-02
2.2005789e+00 3.0334211e-01 1.9974911e-02
2.2039100e+00 2.8457500e-01 2.7277900e-02
2.2039100e+00 2.8457500e-01 2.7277900e-02
2.2067156e+00 2.6624933e-01 2.7979278e-02
2.2090989e+00 2.4924567e-01 2.8661544e-02
2.2110600e+00 2.3356400e-01 2.9324700e-02
2.2125989e+00 2.1920433e-01 2.9968744e-02
2.2137156e+00 2.0616667e-01 3.0593678e-02
2.2144100e+00 1.9445100e-01 3.1199500e-02
2.2144100e+00 1.9445100e-01 3.1199500e-02
2.2144967e+00 1.8338789e-01 3.3432911e-02
2.2144967e+00 1.7305022e-01 3.5556311e-02
2.2144100e+00 1.6343800e-01 3.7569700e-02
2.2142367e+00 1.5455122e-01 3.9473078e-02
2.2139767e+00 1.4638989e-01 4.1266444e-02
2.2136300e+00 1.3895400e-01 4.2949800e-02
2.2136300e+00 1.3895400e-01 4.2949800e-02
2.2133022e+00 1.3147178e-01 4.4639078e-02
2.2127489e+00 1.2501911e-01 4.5236911e-02
2.2119700e+00 1.1959600e-01 4.4743300e-02
2.2109656e+00 1.1520244e-01 4.3158244e-02
2.2097356e+00 1.1183844e-01 4.0481744e-02
2.2082800e+00 1.0950400e-01 3.6713800e-02
2.2082800e+00 1.0950400e-01 3.6713800e-02
2.2069967e+00 1.0800322e-01 3.3696619e-02
2.2040233e+00 1.0909889e-01 2.9185252e-02
2.1993600e+00 1.1279100e-01 2.3179700e-02
2.1930067e+00 1.1907956e-01 1.5679962e-02
2.1849633e+00 1.2796456e-01 6.6860389e-03
2.1752300e+00 1.3944600e-01 -3.8020700e-03
2.1752300e+00 1.3944600e-01 -3.8020700e-03
2.1582278e+00 1.7028856e-01 -1.8511972e-02
2.1426044e+00 1.9877389e-01 -3.2041849e-02
2.1283600e+00 2.2490200e-01 -4.4391700e-02
2.1154944e+00 2.4867289e-01 -5.5561526e-02
2.1040078e+00 2.7008656e-01 -6.5551326e-02
2.0939000e+00 2.8914300e-01 -7.4361100e-02
2.0939000e+00 2.8914300e-01 -7.4361100e-02
2.0830967e+00 2.7964467e-01 -6.3762900e-02
2.0710300e+00 2.6728233e-01 -5.0344733e-02
2.0577000e+00 2.5205600e-01 -3.4106600e-02
2.0431067e+00 2.3396567e-01 -1.5048500e-02
2.0272500e+00 2.1301133e-01 6.8295667e-03
2.0101300e+00 1.8919300e-01 3.1527600e-02
2.0101300e+00 1.8919300e-01 3.1527600e-02
1.9901344e+00 1.8255733e-01 4.7415833e-02
1.9690744e+00 1.7642767e-01 6.2947800e-02
1.9469500e+00 1.7080400e-01 7.8123500e-02
1.9237611e+00 1.6568633e-01 9.2942933e-02
1.8995078e+00 1.6107467e-01 1.0740610e-01
1.8741900e+00 1.5696900e-01 1.2151300e-01
1.8741900e+00 1.5696900e-01 1.2151300e-01
1.8482944e+00 1.5631033e-01 1.3271189e-01
1.8208778e+00 1.5546133e-01 1.4287189e-01
1.7919400e+00 1.5442200e-01 1.5199300e-01
1.7614811e+00 1.5319233e-01 1.6007522e-01
1.7295011e+00 1.5177233e-01 1.6711856e-01
1.6960000e+00 1.5016200e-01 1.7312300e-01
1.6960000e+00 1.5016200e-01 1.7312300e-01
1.6629278e+00 1.4804600e-01 1.7743878e-01
1.6297978e+00 1.4540400e-01 1.7989444e-01
1.5966100e+00 1.4223600e-01 1.8049000e-01
1.5633644e+00 1.3854200e-01 1.7922544e-01
1.5300611e+00 1.3432200e-01 1.7610078e-01
1.4967000e+00 1.2957600e-01 1.7111600e-01
1.4967000e+00 1.2957600e-01 1.7111600e-01
1.4638567e+00 1.2390231e-01 1.6497411e-01
1.4320267e+00 1.1723998e-01 1.5870911e-01
1.4012100e+00 1.0958900e-01 1.5232100e-01
1.3714067e+00 1.0094938e-01 1.4580978e-01
1.3426167e+00 9.1321111e-02 1.3917544e-01
1.3148400e+00 8.0704200e-02 1.3241800e-01
1.3148400e+00 8.0704200e-02 1.3241800e-01
1.2869878e+00 7.0077233e-02 1.2514531e-01
1.2592044e+00 5.9600967e-02 1.1740931e-01
1.2314900e+00 4.9275400e-02 1.0921000e-01
1.2038444e+00 3.9100533e-02 1.0054738e-01
1.1762678e+00 2.9076367e-02 9.1421444e-02
1.1487600e+00 1.9202900e-02 8.1832200e-02
1.1487600e+00 1.9202900e-02 8.1832200e-02
1.1200717e+00 8.7596444e-03 7.2352722e-02
1.0900717e+00 -2.2618889e-03 6.2990822e-02
1.0587600e+00 -1.3861700e-02 5.3746500e-02
1.0261367e+00 -2.6039789e-02 4.4619756e-02
9.9220167e-01 -3.8796156e-02 3.5610589e-02
9.5695500e-01 -5.2130800e-02 2.6719000e-02
9.5695500e-01 -5.2130800e-02 2.6719000e-02
9.1970778e-01 -6.5539222e-02 1.8225972e-02
8.8068678e-01 -7.7746689e-02 9.9983356e-03
8.3989200e-01 -8.8753200e-02 2.0360900e-03
7.9732344e-01 -9.8558756e-02 -5.6607644e-03
7.5298111e-01 -1.0716336e-01 -1.3092228e-02
7.0686500e-01 -1.1456700e-01 -2.0258300e-02
7.0686500e-01 -1.1456700e-01 -2.0258300e-02
6.6088689e-01 -1.2113067e-01 -2.4972933e-02
6.1556222e-01 -1.2584233e-01 -2.8425400e-02
5.7089100e-01 -1.2870200e-01 -3.0615700e-02
5.2687322e-01 -1.2970967e-01 -3.1543833e-02
4.8350889e-01 -1.2886533e-01 -3.1209800e-02
4.4079800e-01 -1.2616900e-01 -2.9613600e-02
4.4079800e-01 -1.2616900e-01 -2.9613600e-02
4.0073944e-01 -1.1906141e-01 -3.0094311e-02
3.6338411e-01 -1.1126774e-01 -3.0328611e-02
3.2873200e-01 -1.0278800e-01 -3.0316500e-02
2.9678311e-01 -9.3622178e-02 -3.0057978e-02
2.6753744e-01 -8.3770278e-02 -2.9553044e-02
2.4099500e-01 -7.3232300e-02 -2.8801700e-02
2.4099500e-01 -7.3232300e-02 -2.8801700e-02
2.1323328e-01 -6.2285611e-02 -2.6524889e-02
1.8711528e-01 -5.1680444e-02 -2.3955122e-02
1.6264100e-01 -4.1416800e-02 -2.1092400e-02
1.3981044e-01 -3.1494678e-02 -1.7936722e-02
1.1862361e-01 -2.1914078e-02 -1.4488089e-02
9.9080500e-02 -1.2675000e-02 -1.0746500e-02
9.9080500e-02 -1.2675000e-02 -1.0746500e-02
8.2715667e-02 -6.7746944e-03 -7.0661800e-03
6.7230833e-02 -1.2269711e-03 -3.4067147e-03
5.2626000e-02 3.9681700e-03 2.3189600e-04
3.8901167e-02 8.8107289e-03 3.8496520e-03
2.6056333e-02 1.3300706e-02 7.4465533e-03
1.4091500e-02 1.7438100e-02 1.1022600e-02
1.8304800e+00 8.6024600e-01 9.9468400e-02
1.8143700e+00 8.5100400e-01 1.0503889e-01
1.7957867e+00 8.3809033e-01 1.1203542e-01
1.7747300e+00 8.2150500e-01 1.2045800e-01
1.7512000e+00 8.0124800e-01 1.3030662e-01
1.7251967e+00 7.7731933e-01 1.4158129e-01
1.6967200e+00 7.4971900e-01 1.5428200e-01
1.6967200e+00 7.4971900e-01 1.5428200e-01
1.6739967e+00 7.3625856e-01 1.6107811e-01
1.6497567e+00 7.2246622e-01 1.6713644e-01
1.6240000e+00 7.0834200e-01 1.7245700e-01
1.5967267e+00 6.9388589e-01 1.7703978e-01
1.5679367e+00 6.7909789e-01 1.8088478e-01
1.5376300e+00 6.6397800e-01 1.8399200e-01
1.5376300e+00 6.6397800e-01 1.8399200e-01
1.5062333e+00 6.4615578e-01 1.8645311e-01
1.4722700e+00 6.2710111e-01 1.8671044e-01
1.4357400e+00 6.0681400e-01 1.8476400e-01
1.3966433e+00 5.8529444e-01 1.8061378e-01
1.3549800e+00 5.6254244e-01 1.7425978e-01
1.3107500e+00 5.3855800e-01 1.6570200e-01
1.3107500e+00 5.3855800e-01 1.6570200e-01
1.2718378e+00 5.1123956e-01 1.5594267e-01
1.2374511e+00 4.8344822e-01 1.4901533e-01
1.2075900e+00 4.5518400e-01 1.4492000e-01
1.1822544e+00 4.2644689e-01 1.4365667e-01
1.1614444e+00 3.9723689e-01 1.4522533e-01
1.1451600e+00 3.6755400e-01 1.4962600e-01
1.1451600e+00 3.6755400e-01 1.4962600e-01
1.1251533e+00 3.3952667e-01 1.5051500e-01
1.1046633e+00 3.1227233e-01 1.5014067e-01
1.0836900e+00 2.8579100e-01 1.4850300e-01
1.0622333e+00 2.6008267e-01 1.4560200e-01
1.0402933e+00 2.3514733e-01 1.4143767e-01
1.0178700e+00 2.1098500e-01 1.3601000e-01
1.0178700e+00 2.1098500e-01 1.3601000e-01
9.9769756e-01 1.8658971e-01 1.3393378e-01
9.7609822e-01 1.6249338e-01 1.3083344e-01
9.5307200e-01 1.3869600e-01 1.2670900e-01
9.2861889e-01 1.1519758e-01 1.2156044e-01
9.0273889e-01 9.1998111e-02 1.1538778e-01
8.7543200e-01 6.9097600e-02 1.0819100e-01
8.7543200e-01 6.9097600e-02 1.0819100e-01
8.4513889e-01 4.7562061e-02 9.7733956e-02
8.1202022e-01 2.7754704e-02 8.6407089e-02
7.7607600e-01 9.6755300e-03 7.4210400e-02
7.3730622e-01 -6.6754622e-03 6.1143889e-02
6.9571089e-01 -2.1298272e-02 4.7207556e-02
6.5129000e-01 -3.4192900e-02 3.2401400e-02
6.5129000e-01 -3.4192900e-02 3.2401400e-02
6.0089611e-01 -4.3956144e-02 1.8464061e-02
5.5099411e-01 -5.1189444e-02 6.8310178e-03
5.0158400e-01 -5.5892800e-02 -2.4977300e-03
4.5266578e-01 -5.8066211e-02 -9.5221822e-03
4.0423944e-01 -5.7709678e-02 -1.4242339e-02
3.5630500e-01 -5.4823200e-02 -1.6658200e-02
3.5630500e-01 -5.4823200e-02 -1.6658200e-02
3.1363478e-01 -4.8804878e-02 -1.9305633e-02
2.7375344e-01 -4.2212111e-02 -2.1205467e-02
2.3666100e-01 -3.5044900e-02 -2.2357700e-02
2.0235744e-01 -2.7303244e-02 -2.2762333e-02
1.7084278e-01 -1.8987144e-02 -2.2419367e-02
1.4211700e-01 -1.0096600e-02 -2.1328800e-02
1.4211700e-01 -1.0096600e-02 -2.1328800e-02
1.1619749e-01 -5.9817872e-03 -1.6822517e-02
9.1470990e-02 -2.5283549e-03 -1.2007340e-02
6.7937500e-02 2.6369700e-04 -6.8832700e-03
4.5597020e-02 2.3943684e-03 -1.4503067e-03
2.4449550e-02 3.8636594e-03 4.2915500e-03
4.4950900e-03 4.6715700e-03 1.0342300e-02
1.8280500e+00 9.1095500e-01 -4.8068100e-02
1.8499089e+00 9.1590011e-01 -3.5675189e-02
1.8705156e+00 9.1801044e-01 -2.3804556e-02
1.8898700e+00 9.1728600e-01 -1.2456200e-02
1.9079722e+00 9.1372678e-01 -1.6301222e-03
1.9248222e+00 9.0733278e-01 8.6736778e-03
1.9404200e+00 8.9810400e-01 1.8455200e-02
1.9404200e+00 8.9810400e-01 1.8455200e-02
1.9532133e+00 8.7958944e-01 2.4244557e-02
1.9648067e+00 8.5919711e-01 2.7142357e-02
1.9752000e+00 8.3692700e-01 2.7148600e-02
1.9843933e+00 8.1277911e-01 2.4263287e-02
1.9923867e+00 7.8675344e-01 1.8486417e-02
1.9991800e+00 7.5885000e-01 9.8179900e-03
1.9991800e+00 7.5885000e-01 9.8179900e-03
2.0053211e+00 7.2853589e-01 2.2979667e-03
2.0101244e+00 7.0239556e-01 -4.2910467e-03
2.0135900e+00 6.8042900e-01 -9.9490500e-03
2.0157178e+00 6.6263622e-01 -1.4676043e-02
2.0165078e+00 6.4901722e-01 -1.8472027e-02
2.0159600e+00 6.3957200e-01 -2.1337000e-02
2.0159600e+00 6.3957200e-01 -2.1337000e-02
2.0163678e+00 6.4209144e-01 -2.0630821e-02
2.0180078e+00 6.4484011e-01 -1.9355588e-02
2.0208800e+00 6.4781800e-01 -1.7511300e-02
2.0249844e+00 6.5102511e-01 -1.5097958e-02
2.0303211e+00 6.5446144e-01 -1.2115561e-02
2.0368900e+00 6.5812700e-01 -8.5641100e-03
1.7841000e+00 8.9363600e-01 2.3458700e-02
1.7951022e+00 8.9331822e-01 4.2485067e-02
1.8047956e+00 8.9090156e-01 5.8968200e-02
1.8131800e+00 8.8638600e-01 7.2908100e-02
1.8202556e+00 8.7977156e-01 8.4304767e-02
1.8260222e+00 8.7105822e-01 9.3158200e-02
1.8304800e+00 8.6024600e-01 9.9468400e-02
2.0939000e+00 2.8914300e-01 -7.4361100e-02
2.0718633e+00 2.5638278e-01 -7.1702711e-02
2.0489800e+00 2.2473711e-01 -6.7897311e-02
2.0252500e+00 1.9420600e-01 -6.2944900e-02
2.0006733e+00 1.6478944e-01 -5.6845478e-02
1.9752500e+00 1.3648744e-01 -4.9599044e-02
1.9489800e+00 1.0930000e-01 -4.1205600e-02
1.9489800e+00 1.0930000e-01 -4.1205600e-02
1.9344922e+00 9.2952611e-02 -3.7269444e-02
1.9181222e+00 7.8397478e-02 -3.1333511e-02
1.8998700e+00 6.5634600e-02 -2.3397800e-02
1.8797356e+00 5.4663978e-02 -1.3462311e-02
1.8577189e+00 4.5485611e-02 -1.5270444e-03
1.8338200e+00 3.8099500e-02 1.2408000e-02
1.8338200e+00 3.8099500e-02 1.2408000e-02
1.8062856e+00 2.9242879e-02 2.5030644e-02
1.7781056e+00 2.1305479e-02 3.6281278e-02
1.7492800e+00 1.4287300e-02 4.6159900e-02
1.7198089e+00 8.1883422e-03 5.4666511e-02
1.6896922e+00 3.0086056e-03 6.1801111e-02
1.6589300e+00 -1.2519100e-03 6.7563700e-02
1.6589300e+00 -1.2519100e-03 6.7563700e-02
1.6195011e+00 -5.2668611e-03 7.1099311e-02
1.5796011e+00 -8.5940578e-03 7.2666044e-02
1.5392300e+00 -1.1233500e-02 7.2263900e-02
1.4983878e+00 -1.3185188e-02 6.9892878e-02
1.4570744e+00 -1.4449121e-02 6.5552978e-02
1.4152900e+00 -1.5025300e-02 5.9244200e-02
1.4152900e+00 -1.5025300e-02 5.9244200e-02
1.3800356e+00 -1.2994136e-02 5.4437789e-02
1.3455356e+00 -1.0201359e-02 4.9289089e-02
1.3117900e+00 -6.6469700e-03 4.3798100e-02
1.2787989e+00 -2.3309689e-03 3.7964822e-02
1.2465622e+00 2.7466444e-03 3.1789256e-02
1.2150800e+00 8.5858700e-03 2.5271400e-02
1.2150800e+00 8.5858700e-03 2.5271400e-02
1.1831856e+00 1.3204572e-02 1.7353717e-02
1.1510422e+00 1.8263082e-02 9.3966200e-03
1.1186500e+00 2.3761400e-02 1.4001100e-03
1.0860089e+00 2.9699526e-02 -6.6358133e-03
1.0531189e+00 3.6077459e-02 -1.4711150e-02
1.0199800e+00 4.2895200e-02 -2.2825900e-02
1.0199800e+00 4.2895200e-02 -2.2825900e-02
9.8936122e-01 4.8380667e-02 -3.0362733e-02
9.5661556e-01 5.4993400e-02 -3.6907900e-02
9.2174300e-01 6.2733400e-02 -4.2461400e-02
8.8474356e-01 7.1600667e-02 -4.7023233e-02
8.4561722e-01 8.1595200e-02 -5.0593400e-02
8.0436400e-01 9.2717000e-02 -5.3171900e-02
8.0436400e-01 9.2717000e-02 -5.3171900e-02
7.5722600e-01 1.0696489e-01 -5.3715889e-02
7.1091100e-01 1.1862489e-01 -5.3507089e-02
6.6541900e-01 1.2769700e-01 -5.2545500e-02
6.2075000e-01 1.3418122e-01 -5.0831122e-02
5.7690400e-01 1.3807756e-01 -4.8363956e-02
5.3388100e-01 1.3938600e-01 -4.5144000e-02
5.3388100e-01 1.3938600e-01 -4.5144000e-02
4.8732400e-01 1.3786511e-01 -4.1397989e-02
4.4324967e-01 1.3462611e-01 -3.7087056e-02
4.0165800e-01 1.2966900e-01 -3.2211200e-02
3.6254900e-01 1.2299378e-01 -2.6770422e-02
3.2592267e-01 1.1460044e-01 -2.0764722e-02
2.9177900e-01 1.0448900e-01 -1.4194100e-02
2.9177900e-01 1.0448900e-01 -1.4194100e-02
2.5684278e-01 9.4504100e-02 -3.5931667e-03
2.2359611e-01 8.4191133e-02 6.1686333e-03
1.9203900e-01 7.3550100e-02 1.5091300e-02
1.6217144e-01 6.2581000e-02 2.3174833e-02
1.3399344e-01 5.1283833e-02 3.0419233e-02
1.0750500e-01 3.9658600e-02 3.6824500e-02
1.0750500e-01 3.9658600e-02 3.6824500e-02
9.4206700e-02 3.3981511e-02 3.1380218e-02
8.0131733e-02 2.7030344e-02 2.5715018e-02
6.5280100e-02 1.8805100e-02 1.9828900e-02
4.9651800e-02 9.3057778e-03 1.3721865e-02
3.3246833e-02 -1.4676222e-03 7.3939117e-03
1.6065200e-02 -1.3515100e-02 8.4504100e-04
6.5361700e+00 4.3052100e-01 1.2398300e-01
6.5230878e+00 3.9452967e-01 1.3465733e-01
6.5091478e+00 3.5993633e-01 1.4508033e-01
6.4943500e+00 3.2674100e-01 1.5525200e-01
6.4786944e+00 2.9494367e-01 1.6517233e-01
6.4621811e+00 2.6454433e-01 1.7484133e-01
6.4448100e+00 2.3554300e-01 1.8425900e-01
6.4448100e+00 2.3554300e-01 1.8425900e-01
6.4291933e+00 2.1553522e-01 1.9125800e-01
6.4129300e+00 2.0076222e-01 1.9762200e-01
6.3960200e+00 1.9122400e-01 2.0335100e-01
6.3784633e+00 1.8692056e-01 2.0844500e-01
6.3602600e+00 1.8785189e-01 2.1290400e-01
6.3414100e+00 1.9401800e-01 2.1672800e-01
6.3414100e+00 1.9401800e-01 2.1672800e-01
6.3231778e+00 1.9927933e-01 2.1933033e-01
6.3033144e+00 2.0530800e-01 2.2207600e-01
6.2818200e+00 2.1210400e-01 2.2496500e-01
6.2586944e+00 2.1966733e-01 2.2799733e-01
6.2339378e+00 2.2799800e-01 2.3117300e-01
6.2075500e+00 2.3709600e-01 2.3449200e-01
6.2075500e+00 2.3709600e-01 2.3449200e-01
6.1719478e+00 2.4818856e-01 2.4109544e-01
6.1379011e+00 2.5379022e-01 2.4749244e-01
6.1054100e+00 2.5390100e-01 2.5368300e-01
6.0744744e+00 2.4852089e-01 2.5966711e-01
6.0450944e+00 2.3764989e-01 2.6544478e-01
6.0172700e+00 2.2128800e-01 2.7101600e-01
6.0172700e+00 2.2128800e-01 2.7101600e-01
5.9950756e+00 2.0208139e-01 2.7139033e-01
5.9740522e+00 1.8239372e-01 2.6949367e-01
5.9542000e+00 1.6222500e-01 2.6532600e-01
5.9355189e+00 1.4157522e-01 2.5888733e-01
5.9180089e+00 1.2044439e-01 2.5017767e-01
5.9016700e+00 9.8832500e-02 2.3919700e-01
5.9016700e+00 9.8832500e-02 2.3919700e-01
5.8765800e+00 1.2009894e-01 2.4140089e-01
5.8491600e+00 1.4025044e-01 2.4236256e-01
5.8194100e+00 1.5928700e-01 2.4208200e-01
5.7873300e+00 1.7720861e-01 2.4055922e-01
5.7529200e+00 1.9401528e-01 2.3779422e-01
5.7161800e+00 2.0970700e-01 2.3378700e-01
5.7161800e+00 2.0970700e-01 2.3378700e-01
5.6801444e+00 2.2025133e-01 2.2378089e-01
5.6462744e+00 2.2625567e-01 2.1237556e-01
5.6145700e+00 2.2772000e-01 1.9957100e-01
5.5850311e+00 2.2464433e-01 1.8536722e-01
5.5576578e+00 2.1702867e-01 1.6976422e-01
5.5324500e+00 2.0487300e-01 1.5276200e-01
5.5324500e+00 2.0487300e-01 1.5276200e-01
5.5100844e+00 1.8740448e-01 1.4166090e-01
5.4858311e+00 1.6953914e-01 1.2974757e-01
5.4596900e+00 1.5127700e-01 1.1702200e-01
5.4316611e+00 1.3261804e-01 1.0348420e-01
5.4017444e+00 1.1356228e-01 8.9134167e-02
5.3699400e+00 9.4109700e-02 7.3971900e-02
5.3699400e+00 9.4109700e-02 7.3971900e-02
5.3311133e+00 7.6295189e-02 5.4978100e-02
5.2895500e+00 6.3612889e-02 3.7886867e-02
5.2452500e+00 5.6062800e-02 2.2698200e-02
5.1982133e+00 5.3644922e-02 9.4121000e-03
5.1484400e+00 5.6359256e-02 -1.9714333e-03
5.0959300e+00 6.4205800e-02 -1.1452400e-02
5.0959300e+00 6.4205800e-02 -1.1452400e-02
5.0447900e+00 8.1568556e-02 -1.4718733e-02
4.9982733e+00 9.8611622e-02 -1.7195033e-02
4.9563800e+00 1.1533500e-01 -1.8881300e-02
4.9191100e+00 1.3173869e-01 -1.9777533e-02
4.8864633e+00 1.4782269e-01 -1.9883733e-02
4.8584400e+00 1.6358700e-01 -1.9199900e-02
4.9546000e+00 2.1292400e-01 -5.0933000e-02
4.9450844e+00 1.9963922e-01 -4.8439844e-02
4.9329644e+00 1.8837922e-01 -4.4828411e-02
4.9182400e+00 1.7914400e-01 -4.0098700e-02
4.9009111e+00 1.7193356e-01 -3.4250711e-02
4.8809778e+00 1.6674789e-01 -2.7284444e-02
4.8584400e+00 1.6358700e-01 -1.9199900e-02
6.2241000e+00 4.6674500e-01 1.3172100e-01
6.2040678e+00 4.5243467e-01 1.1878013e-01
6.1837378e+00 4.3772200e-01 1.0495603e-01
6.1631100e+00 4.2260700e-01 9.0248700e-02
6.1421844e+00 4.0708967e-01 7.4658133e-02
6.1209611e+00 3.9117000e-01 5.8184333e-02
6.0994400e+00 3.7484800e-01 4.0827300e-02
6.0994400e+00 3.7484800e-01 4.0827300e-02
6.0781744e+00 3.5416489e-01 2.2961868e-02
6.0574411e+00 3.3461822e-01 9.6306811e-03
6.0372400e+00 3.1620800e-01 8.3374000e-04
6.0175711e+00 2.9893422e-01 -3.4289556e-03
5.9984344e+00 2.8279689e-01 -3.1574056e-03
5.9798300e+00 2.6779600e-01 1.6483900e-03
5.9798300e+00 2.6779600e-01 1.6483900e-03
5.9520633e+00 2.6277944e-01 2.3001494e-02
5.9225367e+00 2.5974278e-01 4.4402864e-02
5.8912500e+00 2.5868600e-01 6.5852500e-02
5.8582033e+00 2.5960911e-01 8.7350401e-02
5.8233967e+00 2.6251211e-01 1.0889657e-01
5.7868300e+00 2.6739500e-01 1.3049100e-01
5.7868300e+00 2.6739500e-01 1.3049100e-01
5.7519444e+00 2.7497533e-01 1.5303500e-01
5.7154078e+00 2.8058667e-01 1.7539833e-01
5.6772200e+00 2.8422900e-01 1.9758100e-01
5.6373811e+00 2.8590233e-01 2.1958300e-01
5.5958911e+00 2.8560667e-01 2.4140433e-01
5.5527500e+00 2.8334200e-01 2.6304500e-01
5.5527500e+00 2.8334200e-01 2.6304500e-01
5.5052344e+00 2.6221811e-01 2.5512128e-01
5.4544578e+00 2.4523644e-01 2.3844094e-01
5.4004200e+00 2.3239700e-01 2.1300400e-01
5.3431211e+00 2.2369978e-01 1.7881044e-01
5.2825611e+00 2.1914478e-01 1.3586028e-01
5.2187400e+00 2.1873200e-01 8.4153500e-02
5.2187400e+00 2.1873200e-01 8.4153500e-02
5.1624667e+00 2.2174567e-01 4.6411333e-02
5.1110933e+00 2.2316667e-01 1.4760267e-02
5.0646200e+00 2.2299500e-01 -1.0799700e-02
5.0230467e+00 2.2123067e-01 -3.0268567e-02
4.9863733e+00 2.1787367e-01 -4.3646333e-02
4.9546000e+00 2.1292400e-01 -5.0933000e-02
3.6412700e+00 3.8648600e-01 -5.7590200e-02
3.6754411e+00 3.5777733e-01 -5.0948122e-02
3.7157711e+00 3.3023100e-01 -4.7096556e-02
3.7622600e+00 3.0384700e-01 -4.6035500e-02
3.8149078e+00 2.7862533e-01 -4.7764956e-02
3.8737144e+00 2.5456600e-01 -5.2284922e-02
3.9386800e+00 2.3166900e-01 -5.9595400e-02
3.9386800e+00 2.3166900e-01 -5.9595400e-02
4.0064300e+00 2.2812244e-01 -5.9936533e-02
4.0736300e+00 2.3060044e-01 -5.8451000e-02
4.1402800e+00 2.3910300e-01 -5.5138800e-02
4.2063800e+00 2.5363011e-01 -4.9999933e-02
4.2719300e+00 2.7418178e-01 -4.3034400e-02
4.3369300e+00 3.0075800e-01 -3.4242200e-02
4.3369300e+00 3.0075800e-01 -3.4242200e-02
4.3965178e+00 3.2765456e-01 -3.0168411e-02
4.4562578e+00 3.4855389e-01 -2.6934678e-02
4.5161500e+00 3.6345600e-01 -2.4541000e-02
4.5761944e+00 3.7236089e-01 -2.2987378e-02
4.6363911e+00 3.7526856e-01 -2.2273811e-02
4.6967400e+00 3.7217900e-01 -2.2400300e-02
4.6967400e+00 3.7217900e-01 -2.2400300e-02
4.7531444e+00 3.4943789e-01 -2.5921833e-02
4.8041778e+00 3.2517622e-01 -2.9936933e-02
4.8498400e+00 2.9939400e-01 -3.4445600e-02
4.8901311e+00 2.7209122e-01 -3.9447833e-02
4.9250511e+00 2.4326789e-01 -4.4943633e-02
4.9546000e+00 2.1292400e-01 -5.0933000e-02