# vtk DataFile Version 2.0
test
ASCII
DATASET POLYDATA
POINTS 4361 float
5.4133122e+00 7.1462515e+00 1.1858676e+01
5.5272589e+00 7.2017061e+00 1.1734709e+01
5.6428632e+00 7.2559167e+00 1.1611811e+01
5.7601250e+00 7.3088831e+00 1.1489984e+01
5.8790444e+00 7.3606053e+00 1.1369227e+01
5.9996213e+00 7.4110834e+00 1.1249541e+01
6.1218558e+00 7.4603174e+00 1.1130925e+01
6.1218558e+00 7.4603174e+00 1.1130925e+01
6.2473179e+00 7.5168538e+00 1.1016126e+01
6.3787614e+00 7.5716565e+00 1.0909214e+01
6.5161865e+00 7.6247255e+00 1.0810189e+01
6.6595930e+00 7.6760608e+00 1.0719051e+01
6.8089811e+00 7.7256623e+00 1.0635799e+01
6.9643506e+00 7.7735301e+00 1.0560434e+01
6.9643506e+00 7.7735301e+00 1.0560434e+01
7.1314647e+00 7.8151192e+00 1.0507798e+01
7.3005085e+00 7.8545028e+00 1.0470266e+01
7.4714820e+00 7.8916810e+00 1.0447839e+01
7.6443853e+00 7.9266539e+00 1.0440517e+01
7.8192183e+00 7.9594213e+00 1.0448299e+01
7.9959811e+00 7.9899834e+00 1.0471186e+01
7.9959811e+00 7.9899834e+00 1.0471186e+01
8.1707679e+00 8.0163997e+00 1.0495451e+01
8.3451822e+00 8.0407849e+00 1.0523348e+01
8.5192242e+00 8.0631392e+00 1.0554877e+01
8.6928937e+00 8.0834625e+00 1.0590038e+01
8.8661909e+00 8.1017548e+00 1.0628831e+01
9.0391156e+00 8.1180161e+00 1.0671255e+01
9.0391156e+00 8.1180161e+00 1.0671255e+01
9.2118610e+00 8.1323209e+00 1.0715224e+01
9.3855252e+00 8.1446225e+00 1.0754999e+01
9.5601082e+00 8.1549211e+00 1.0790578e+01
9.7356101e+00 8.1632165e+00 1.0821963e+01
9.9120308e+00 8.1695088e+00 1.0849154e+01
1.0089370e+01 8.1737979e+00 1.0872150e+01
1.0089370e+01 8.1737979e+00 1.0872150e+01
1.0269424e+01 8.1751915e+00 1.0886449e+01
1.0447670e+01 8.1746308e+00 1.0886421e+01
1.0624109e+01 8.1721157e+00 1.0872067e+01
1.0798742e+01 8.1676462e+00 1.0843385e+01
1.0971567e+01 8.1612224e+00 1.0800377e+01
1.1142585e+01 8.1528442e+00 1.0743042e+01
1.1142585e+01 8.1528442e+00 1.0743042e+01
1.1306259e+01 8.1421734e+00 1.0667548e+01
1.1461390e+01 8.1326032e+00 1.0580313e+01
1.1607977e+01 8.1241337e+00 1.0481337e+01
1.1746021e+01 8.1167650e+00 1.0370620e+01
1.1875521e+01 8.1104970e+00 1.0248162e+01
1.1996478e+01 8.1053296e+00 1.0113963e+01
1.1996478e+01 8.1053296e+00 1.0113963e+01
1.2103700e+01 8.1198527e+00 9.9714181e+00
1.2209722e+01 8.1316091e+00 9.8277463e+00
1.2314544e+01 8.1405988e+00 9.6829472e+00
1.2418165e+01 8.1468217e+00 9.5370210e+00
1.2520585e+01 8.1502779e+00 9.3899676e+00
1.2621806e+01 8.1509674e+00 9.2417870e+00
1.2621806e+01 8.1509674e+00 9.2417870e+00
1.2515749e+01 8.0774486e+00 9.1084565e+00
1.2409736e+01 8.0004574e+00 8.9774655e+00
1.2303768e+01 7.9199938e+00 8.8488139e+00
1.2197845e+01 7.8360578e+00 8.7225018e+00
1.2091967e+01 7.7486494e+00 8.5985291e+00
1.1986133e+01 7.6577686e+00 8.4768958e+00
1.1986133e+01 7.6577686e+00 8.4768958e+00
1.1879819e+01 7.5836065e+00 8.3447311e+00
1.1777174e+01 7.5083669e+00 8.2106666e+00
1.1678199e+01 7.4320497e+00 8.0747024e+00
1.1582893e+01 7.3546550e+00 7.9368386e+00
1.1491257e+01 7.2761827e+00 7.7970750e+00
1.1403290e+01 7.1966330e+00 7.6554118e+00
1.1403290e+01 7.1966330e+00 7.6554118e+00
1.1321733e+01 7.1184741e+00 7.5084204e+00
1.1247906e+01 7.0380763e+00 7.3596132e+00
1.1181809e+01 6.9554395e+00 7.2089903e+00
1.1123441e+01 6.8705637e+00 7.0565515e+00
1.1072804e+01 6.7834489e+00 6.9022970e+00
1.1029897e+01 6.6940951e+00 6.7462266e+00
1.1029897e+01 6.6940951e+00 6.7462266e+00
1.0999906e+01 6.6023088e+00 6.5891527e+00
1.0979633e+01 6.5090129e+00 6.4325272e+00
1.0969079e+01 6.4142075e+00 6.2763501e+00
1.0968242e+01 6.3178925e+00 6.1206215e+00
1.0977123e+01 6.2200680e+00 5.9653414e+00
1.0995723e+01 6.1207340e+00 5.8105097e+00
1.0995723e+01 6.1207340e+00 5.8105097e+00
1.1023019e+01 6.0203295e+00 5.6585176e+00
1.1056742e+01 5.9184987e+00 5.5095647e+00
1.1096891e+01 5.8152415e+00 5.3636512e+00
1.1143467e+01 5.7105578e+00 5.2207770e+00
1.1196468e+01 5.6044478e+00 5.0809421e+00
1.1255896e+01 5.4969114e+00 4.9441466e+00
1.1255896e+01 5.4969114e+00 4.9441466e+00
1.1318081e+01 5.3888967e+00 4.8096416e+00
1.1381848e+01 5.2800395e+00 4.6766390e+00
1.1447197e+01 5.1703397e+00 4.5451386e+00
1.1514127e+01 5.0597973e+00 4.4151406e+00
1.1582639e+01 4.9484124e+00 4.2866449e+00
1.1652733e+01 4.8361849e+00 4.1596514e+00
1.1652733e+01 4.8361849e+00 4.1596514e+00
1.1721613e+01 4.7219833e+00 4.0340084e+00
1.1787603e+01 4.6050786e+00 3.9092472e+00
1.1850704e+01 4.4854706e+00 3.7853678e+00
1.1910916e+01 4.3631594e+00 3.6623704e+00
1.1968238e+01 4.2381450e+00 3.5402548e+00
1.2022671e+01 4.1104274e+00 3.4190211e+00
1.2022671e+01 4.1104274e+00 3.4190211e+00
1.2072220e+01 3.9798046e+00 3.2983242e+00
1.2114613e+01 3.8472815e+00 3.1778735e+00
1.2149850e+01 3.7128582e+00 3.0576692e+00
1.2177930e+01 3.5765346e+00 2.9377113e+00
1.2198855e+01 3.4383107e+00 2.8179997e+00
1.2212623e+01 3.2981865e+00 2.6985344e+00
1.2212623e+01 3.2981865e+00 2.6985344e+00
1.2218373e+01 3.1549402e+00 2.5811090e+00
1.2214970e+01 3.0111340e+00 2.4656205e+00
1.2202416e+01 2.8667678e+00 2.3520689e+00
1.2180709e+01 2.7218416e+00 2.2404542e+00
1.2149850e+01 2.5763554e+00 2.1307763e+00
1.2109839e+01 2.4303093e+00 2.0230353e+00
1.2109839e+01 2.4303093e+00 2.0230353e+00
1.2060281e+01 2.2878088e+00 1.9149275e+00
1.2004218e+01 2.1464999e+00 1.8091566e+00
1.1941650e+01 2.0063827e+00 1.7057225e+00
1.1872576e+01 1.8674571e+00 1.6046254e+00
1.1796998e+01 1.7297232e+00 1.5058651e+00
1.1714914e+01 1.5931809e+00 1.4094418e+00
1.1714914e+01 1.5931809e+00 1.4094418e+00
1.1624455e+01 1.4590443e+00 1.3171571e+00
1.1530914e+01 1.3259168e+00 1.2268969e+00
1.1434289e+01 1.1937984e+00 1.1386612e+00
1.1334583e+01 1.0626892e+00 1.0524500e+00
1.1231793e+01 9.3258911e-01 9.6826341e-01
1.1125921e+01 8.0349817e-01 8.8610130e-01
1.1125921e+01 8.0349817e-01 8.8610130e-01
1.1020794e+01 6.7216156e-01 8.0502062e-01
1.0915222e+01 5.4101695e-01 7.2450549e-01
1.0809206e+01 4.1006435e-01 6.4455591e-01
1.0702744e+01 2.7930376e-01 5.6517187e-01
1.0595839e+01 1.4873518e-01 4.8635338e-01
1.0488488e+01 1.8358600e-02 4.0810043e-01
3.1218100e+00 6.1026631e+00 1.1745743e+01
3.0825375e+00 6.0567970e+00 1.1564036e+01
3.0430008e+00 6.0065391e+00 1.1383756e+01
3.0031998e+00 5.9518895e+00 1.1204904e+01
2.9631345e+00 5.8928482e+00 1.1027478e+01
2.9228050e+00 5.8294151e+00 1.0851479e+01
2.8822112e+00 5.7615903e+00 1.0676908e+01
2.8822112e+00 5.7615903e+00 1.0676908e+01
2.8521040e+00 5.7072021e+00 1.0495508e+01
2.8283852e+00 5.6506324e+00 1.0314405e+01
2.8110546e+00 5.5918811e+00 1.0133600e+01
2.8001123e+00 5.5309482e+00 9.9530906e+00
2.7955583e+00 5.4678338e+00 9.7728784e+00
2.7973926e+00 5.4025379e+00 9.5929632e+00
2.7973926e+00 5.4025379e+00 9.5929632e+00
2.8106867e+00 5.3317295e+00 9.4148019e+00
2.8329284e+00 5.2574739e+00 9.2404032e+00
2.8641176e+00 5.1797710e+00 9.0697670e+00
2.9042543e+00 5.0986207e+00 8.9028933e+00
2.9533385e+00 5.0140233e+00 8.7397821e+00
3.0113702e+00 4.9259785e+00 8.5804335e+00
3.0113702e+00 4.9259785e+00 8.5804335e+00
3.0858784e+00 4.8328698e+00 8.4298122e+00
3.1711989e+00 4.7379457e+00 8.2892534e+00
3.2673316e+00 4.6412063e+00 8.1587572e+00
3.3742766e+00 4.5426515e+00 8.0383234e+00
3.4920338e+00 4.4422813e+00 7.9279522e+00
3.6206033e+00 4.3400957e+00 7.8276434e+00
3.6206033e+00 4.3400957e+00 7.8276434e+00
3.7476432e+00 4.2386272e+00 7.7292209e+00
3.8752592e+00 4.1363088e+00 7.6326203e+00
4.0034512e+00 4.0331404e+00 7.5378415e+00
4.1322193e+00 3.9291220e+00 7.4448845e+00
4.2615634e+00 3.8242538e+00 7.3537493e+00
4.3914835e+00 3.7185356e+00 7.2644360e+00
4.3914835e+00 3.7185356e+00 7.2644360e+00
4.5231773e+00 3.6104954e+00 7.1796036e+00
4.6511476e+00 3.4998541e+00 7.0929621e+00
4.7753942e+00 3.3866117e+00 7.0045116e+00
4.8959174e+00 3.2707681e+00 6.9142520e+00
5.0127169e+00 3.1523234e+00 6.8221833e+00
5.1257929e+00 3.0312776e+00 6.7283056e+00
5.1257929e+00 3.0312776e+00 6.7283056e+00
5.2321489e+00 2.9076781e+00 6.6281878e+00
5.3281595e+00 2.7819050e+00 6.5228458e+00
5.4138248e+00 2.6539582e+00 6.4122798e+00
5.4891446e+00 2.5238377e+00 6.2964896e+00
5.5541191e+00 2.3915435e+00 6.1754753e+00
5.6087482e+00 2.2570757e+00 6.0492370e+00
5.6087482e+00 2.2570757e+00 6.0492370e+00
5.6449497e+00 2.1213648e+00 5.9172487e+00
5.6691859e+00 1.9866890e+00 5.7836067e+00
5.6814568e+00 1.8530484e+00 5.6483111e+00
5.6817624e+00 1.7204430e+00 5.5113619e+00
5.6701027e+00 1.5888728e+00 5.3727589e+00
5.6464776e+00 1.4583378e+00 5.2325024e+00
5.6464776e+00 1.4583378e+00 5.2325024e+00
5.6152465e+00 1.3323090e+00 5.0903135e+00
5.5787887e+00 1.2080588e+00 4.9481652e+00
5.5371040e+00 1.0855870e+00 4.8060573e+00
5.4901926e+00 9.6489372e-01 4.6639899e+00
5.4380544e+00 8.4597890e-01 4.5219630e+00
5.3806894e+00 7.2884256e-01 4.3799765e+00
5.3806894e+00 7.2884256e-01 4.3799765e+00
5.3217474e+00 6.0833165e-01 4.2419162e+00
5.2617272e+00 4.8776528e-01 4.1042398e+00
5.2006288e+00 3.6714343e-01 3.9669473e+00
5.1384522e+00 2.4646611e-01 3.8300388e+00
5.0751973e+00 1.2573333e-01 3.6935141e+00
5.0108643e+00 4.9450800e-03 3.5573734e+00
1.9011000e+00 5.9120084e+00 1.3868673e+01
1.9743586e+00 6.0202325e+00 1.3722172e+01
2.0596823e+00 6.1269704e+00 1.3585273e+01
2.1570711e+00 6.2322222e+00 1.3457975e+01
2.2665250e+00 6.3359879e+00 1.3340279e+01
2.3880441e+00 6.4382675e+00 1.3232185e+01
2.5216282e+00 6.5390609e+00 1.3133692e+01
2.5216282e+00 6.5390609e+00 1.3133692e+01
2.6865575e+00 6.6244664e+00 1.3075657e+01
2.8573280e+00 6.6991599e+00 1.3030711e+01
3.0339400e+00 6.7631414e+00 1.2998854e+01
3.2163933e+00 6.8164108e+00 1.2980087e+01
3.4046880e+00 6.8589681e+00 1.2974409e+01
3.5988240e+00 6.8908134e+00 1.2981821e+01
3.5988240e+00 6.8908134e+00 1.2981821e+01
3.7938335e+00 6.9154008e+00 1.2989452e+01
3.9848571e+00 6.9394446e+00 1.2979208e+01
4.1718948e+00 6.9629449e+00 1.2951089e+01
4.3549466e+00 6.9859017e+00 1.2905095e+01
4.5340125e+00 7.0083150e+00 1.2841227e+01
4.7090925e+00 7.0301848e+00 1.2759483e+01
4.7090925e+00 7.0301848e+00 1.2759483e+01
4.8554871e+00 7.0563830e+00 1.2634071e+01
4.9902718e+00 7.0798397e+00 1.2498770e+01
5.1134467e+00 7.1005549e+00 1.2353580e+01
5.2250117e+00 7.1185286e+00 1.2198501e+01
[...]
POINT_DATA 4361
VECTORS U float
2.1164100e+00 6.8340300e-01 -8.5809900e-03
2.1345211e+00 6.6736156e-01 1.1451722e-03
2.1516544e+00 6.4975322e-01 9.6223689e-03
2.1678100e+00 6.3057800e-01 1.6850600e-02
2.1829878e+00 6.0983589e-01 2.2829866e-02
2.1971878e+00 5.8752689e-01 2.7560166e-02
2.2104100e+00 5.6365100e-01 3.1041500e-02
2.2104100e+00 5.6365100e-01 3.1041500e-02
2.2206822e+00 5.4587967e-01 3.4118100e-02
2.2297456e+00 5.2684233e-01 3.4956033e-02
2.2376000e+00 5.0653900e-01 3.3555300e-02
2.2442456e+00 4.8496967e-01 2.9915900e-02
2.2496822e+00 4.6213433e-01 2.4037833e-02
2.2539100e+00 4.3803300e-01 1.5921100e-02
2.2539100e+00 4.3803300e-01 1.5921100e-02
2.2613833e+00 4.1035344e-01 1.1986433e-02
2.2680400e+00 3.8433144e-01 1.0383633e-02
2.2738800e+00 3.5996700e-01 1.1112700e-02
2.2789033e+00 3.3726011e-01 1.4173633e-02
2.2831100e+00 3.1621078e-01 1.9566433e-02
2.2865000e+00 2.9681900e-01 2.7291100e-02
2.2865000e+00 2.9681900e-01 2.7291100e-02
2.2893378e+00 2.7788800e-01 2.8127944e-02
2.2917478e+00 2.6031800e-01 2.8921111e-02
2.2937300e+00 2.4410900e-01 2.9670600e-02
2.2952844e+00 2.2926100e-01 3.0376411e-02
2.2964111e+00 2.1577400e-01 3.1038544e-02
2.2971100e+00 2.0364800e-01 3.1657000e-02
2.2971100e+00 2.0364800e-01 3.1657000e-02
2.2971789e+00 1.9218844e-01 3.3980422e-02
2.2971656e+00 1.8148211e-01 3.6161256e-02
2.2970700e+00 1.7152900e-01 3.8199500e-02
2.2968922e+00 1.6232911e-01 4.0095156e-02
2.2966322e+00 1.5388244e-01 4.1848222e-02
2.2962900e+00 1.4618900e-01 4.3458700e-02
2.2962900e+00 1.4618900e-01 4.3458700e-02
2.2959556e+00 1.3845689e-01 4.5095267e-02
2.2953789e+00 1.3178422e-01 4.5598867e-02
2.2945600e+00 1.2617100e-01 4.4969500e-02
2.2934989e+00 1.2161722e-01 4.3207167e-02
2.2921956e+00 1.1812289e-01 4.0311867e-02
2.2906500e+00 1.1568800e-01 3.6283600e-02
2.2906500e+00 1.1568800e-01 3.6283600e-02
2.2892533e+00 1.1411567e-01 3.3001561e-02
2.2861433e+00 1.1527300e-01 2.8232194e-02
2.2813200e+00 1.1916000e-01 2.1975500e-02
2.2747833e+00 1.2577667e-01 1.4231478e-02
2.2665333e+00 1.3512300e-01 5.0001278e-03
2.2565700e+00 1.4719900e-01 -5.7185500e-03
2.2565700e+00 1.4719900e-01 -5.7185500e-03
2.2391811e+00 1.7939878e-01 -2.0607017e-02
2.2232311e+00 2.0913144e-01 -3.4304800e-02
2.2087200e+00 2.3639700e-01 -4.6811900e-02
2.1956478e+00 2.6119544e-01 -5.8128317e-02
2.1840144e+00 2.8352678e-01 -6.8254050e-02
2.1738200e+00 3.0339100e-01 -7.7189100e-02
2.1738200e+00 3.0339100e-01 -7.7189100e-02
2.1626244e+00 2.9352011e-01 -6.6279678e-02
2.1501311e+00 2.8069144e-01 -5.2421644e-02
2.1363400e+00 2.6490500e-01 -3.5615000e-02
2.1212511e+00 2.4616078e-01 -1.5859744e-02
2.1048644e+00 2.2445878e-01 6.8441222e-03
2.0871800e+00 1.9979900e-01 3.2496600e-02
2.0871800e+00 1.9979900e-01 3.2496600e-02
2.0664989e+00 1.9290889e-01 4.8953778e-02
2.0447189e+00 1.8649989e-01 6.5070111e-02
2.0218400e+00 1.8057200e-01 8.0845600e-02
1.9978622e+00 1.7512522e-01 9.6280244e-02
1.9727856e+00 1.7015956e-01 1.1137404e-01
1.9466100e+00 1.6567500e-01 1.2612700e-01
1.9466100e+00 1.6567500e-01 1.2612700e-01
1.9197700e+00 1.6486689e-01 1.3783311e-01
1.8913600e+00 1.6385989e-01 1.4847211e-01
1.8613800e+00 1.6265400e-01 1.5804400e-01
1.8298300e+00 1.6124922e-01 1.6654878e-01
1.7967100e+00 1.5964556e-01 1.7398644e-01
1.7620200e+00 1.5784300e-01 1.8035700e-01
1.7620200e+00 1.5784300e-01 1.8035700e-01
1.7278711e+00 1.5551833e-01 1.8498444e-01
1.6935611e+00 1.5266167e-01 1.8767344e-01
1.6590900e+00 1.4927300e-01 1.8842400e-01
1.6244578e+00 1.4535233e-01 1.8723611e-01
1.5896644e+00 1.4089967e-01 1.8410978e-01
1.5547100e+00 1.3591500e-01 1.7904500e-01
1.5547100e+00 1.3591500e-01 1.7904500e-01
1.5203089e+00 1.2996253e-01 1.7274244e-01
1.4869622e+00 1.2297687e-01 1.6630178e-01
1.4546700e+00 1.1495800e-01 1.5972300e-01
1.4234322e+00 1.0590593e-01 1.5300611e-01
1.3932489e+00 9.5820667e-02 1.4615111e-01
1.3641200e+00 8.4702200e-02 1.3915800e-01
1.3641200e+00 8.4702200e-02 1.3915800e-01
1.3348822e+00 7.3527967e-02 1.3164518e-01
1.3057122e+00 6.2519500e-02 1.2363884e-01
1.2766100e+00 5.1676800e-02 1.1513900e-01
1.2475756e+00 4.0999867e-02 1.0614564e-01
1.2186089e+00 3.0488700e-02 9.6658778e-02
1.1897100e+00 2.0143300e-02 8.6678400e-02
1.1897100e+00 2.0143300e-02 8.6678400e-02
1.1596010e+00 9.2703778e-03 7.6776111e-02
1.1281243e+00 -2.2018556e-03 6.7014244e-02
1.0952800e+00 -1.4273400e-02 5.7392800e-02
1.0610680e+00 -2.6944256e-02 4.7911778e-02
1.0254883e+00 -4.0214422e-02 3.8571178e-02
9.8854100e-01 -5.4083900e-02 2.9371000e-02
9.8854100e-01 -5.4083900e-02 2.9371000e-02
9.4958422e-01 -6.8025389e-02 2.0654506e-02
9.0885222e-01 -8.0680822e-02 1.2213502e-02
8.6634500e-01 -9.2050200e-02 4.0479900e-03
8.2206256e-01 -1.0213352e-01 -3.8420311e-03
7.7600489e-01 -1.1093079e-01 -1.1456561e-02
7.2817200e-01 -1.1844200e-01 -1.8795600e-02
7.2817200e-01 -1.1844200e-01 -1.8795600e-02
6.8047422e-01 -1.2504144e-01 -2.3655489e-02
6.3351222e-01 -1.2973678e-01 -2.7218589e-02
5.8728600e-01 -1.3252800e-01 -2.9484900e-02
5.4179556e-01 -1.3341511e-01 -3.0454422e-02
4.9704089e-01 -1.3239811e-01 -3.0127156e-02
4.5302200e-01 -1.2947700e-01 -2.8503100e-02
4.5302200e-01 -1.2947700e-01 -2.8503100e-02
4.1183822e-01 -1.2206813e-01 -2.9015256e-02
3.7345322e-01 -1.1397613e-01 -2.9286256e-02
3.3786700e-01 -1.0520100e-01 -2.9316100e-02
3.0507956e-01 -9.5742733e-02 -2.9104789e-02
2.7509089e-01 -8.5601333e-02 -2.8652322e-02
2.4790100e-01 -7.4776800e-02 -2.7958700e-02
2.4790100e-01 -7.4776800e-02 -2.7958700e-02
2.1941033e-01 -6.3537567e-02 -2.5666826e-02
1.9260600e-01 -5.2649833e-02 -2.3083426e-02
1.6748800e-01 -4.2113600e-02 -2.0208500e-02
1.4405633e-01 -3.1928867e-02 -1.7042049e-02
1.2231100e-01 -2.2095633e-02 -1.3584072e-02
1.0225200e-01 -1.2613900e-02 -9.8345700e-03
1.0225200e-01 -1.2613900e-02 -9.8345700e-03
8.5453467e-02 -6.5760944e-03 -6.2103150e-03
6.9552667e-02 -8.8857778e-04 -2.6053507e-03
5.4549600e-02 4.4486500e-03 9.8032300e-04
4.0444267e-02 9.4355889e-03 4.5467060e-03
2.7236667e-02 1.4072239e-02 8.0937983e-03
1.4926800e-02 1.8358600e-02 1.1621600e-02
1.9036900e+00 8.9115100e-01 1.0118800e-01
1.8870044e+00 8.8151611e-01 1.0700200e-01
1.8677544e+00 8.6807578e-01 1.1432367e-01
1.8459400e+00 8.5083000e-01 1.2315300e-01
1.8215611e+00 8.2977878e-01 1.3349000e-01
1.7946178e+00 8.0492211e-01 1.4533467e-01
1.7651100e+00 7.7626000e-01 1.5868700e-01
1.7651100e+00 7.7626000e-01 1.5868700e-01
1.7415967e+00 7.6223900e-01 1.6581489e-01
1.7165100e+00 7.4788500e-01 1.7218456e-01
1.6898500e+00 7.3319800e-01 1.7779600e-01
1.6616167e+00 7.1817800e-01 1.8264922e-01
1.6318100e+00 7.0282500e-01 1.8674422e-01
1.6004300e+00 6.8713900e-01 1.9008100e-01
1.6004300e+00 6.8713900e-01 1.9008100e-01
1.5677644e+00 6.6874078e-01 1.9272389e-01
1.5324111e+00 6.4908811e-01 1.9308189e-01
1.4943700e+00 6.2818100e-01 1.9115500e-01
1.4536411e+00 6.0601944e-01 1.8694322e-01
1.4102244e+00 5.8260344e-01 1.8044656e-01
1.3641200e+00 5.5793300e-01 1.7166500e-01
1.3641200e+00 5.5793300e-01 1.7166500e-01
1.3235989e+00 5.2975589e-01 1.6163378e-01
1.2877789e+00 5.0106189e-01 1.5451944e-01
1.2566600e+00 4.7185100e-01 1.5032200e-01
1.2302422e+00 4.4212322e-01 1.4904144e-01
1.2085256e+00 4.1187856e-01 1.5067778e-01
1.1915100e+00 3.8111700e-01 1.5523100e-01
1.1915100e+00 3.8111700e-01 1.5523100e-01
1.1706378e+00 3.5206356e-01 1.5617722e-01
1.1492511e+00 3.2380789e-01 1.5579256e-01
1.1273500e+00 2.9635000e-01 1.5407700e-01
1.1049344e+00 2.6968989e-01 1.5103056e-01
1.0820044e+00 2.4382756e-01 1.4665322e-01
1.0585600e+00 2.1876300e-01 1.4094500e-01
1.0585600e+00 2.1876300e-01 1.4094500e-01
1.0373948e+00 1.9342329e-01 1.3863689e-01
1.0147184e+00 1.6837729e-01 1.3527389e-01
9.9053100e-01 1.4362500e-01 1.3085600e-01
9.6483244e-01 1.1916642e-01 1.2538322e-01
9.3762278e-01 9.5001556e-02 1.1885556e-01
9.0890200e-01 7.1130400e-02 1.1127300e-01
9.0890200e-01 7.1130400e-02 1.1127300e-01
8.7701122e-01 4.8665728e-02 1.0032919e-01
8.4219956e-01 2.8046258e-02 8.8499222e-02
8.0446700e-01 9.2719900e-03 7.5783100e-02
7.6381356e-01 -7.6570756e-03 6.2180822e-02
7.2023922e-01 -2.2740939e-02 4.7692389e-02
6.7374400e-01 -3.5979600e-02 3.2317800e-02
6.7374400e-01 -3.5979600e-02 3.2317800e-02
6.2123878e-01 -4.5846378e-02 1.7911217e-02
5.6932978e-01 -5.3120744e-02 5.9182733e-03
5.1801700e-01 -5.7802700e-02 -3.6610300e-03
4.6730044e-01 -5.9892244e-02 -1.0826693e-02
4.1718011e-01 -5.9389378e-02 -1.5578717e-02
3.6765600e-01 -5.6294100e-02 -1.7917100e-02
3.6765600e-01 -5.6294100e-02 -1.7917100e-02
3.2361956e-01 -5.0082456e-02 -2.0484422e-02
2.8247989e-01 -4.3285256e-02 -2.2302389e-02
2.4423700e-01 -3.5902500e-02 -2.3371000e-02
2.0889089e-01 -2.7934189e-02 -2.3690256e-02
1.7644156e-01 -1.9380322e-02 -2.3260156e-02
1.4688900e-01 -1.0240900e-02 -2.2080700e-02
1.4688900e-01 -1.0240900e-02 -2.2080700e-02
1.2016916e-01 -6.0144483e-03 -1.7402217e-02
9.4662293e-02 -2.4661787e-03 -1.2401220e-02
7.0368400e-02 4.0390900e-04 -7.0777100e-03
4.7287480e-02 2.5958147e-03 -1.4316867e-03
2.5419533e-02 4.1095383e-03 4.5368500e-03
4.7645600e-03 4.9450800e-03 1.0827900e-02
1.9011000e+00 9.4230400e-01 -5.1109600e-02
1.9236611e+00 9.4745389e-01 -3.8223644e-02
1.9449244e+00 9.4968222e-01 -2.5879278e-02
1.9648900e+00 9.4898900e-01 -1.4076500e-02
1.9835578e+00 9.4537422e-01 -2.8153111e-03
2.0009278e+00 9.3883789e-01 7.9042889e-03
2.0170000e+00 9.2938000e-01 1.8082300e-02
2.0170000e+00 9.2938000e-01 1.8082300e-02
2.0301356e+00 9.1032156e-01 2.4107532e-02
2.0420256e+00 8.8933956e-01 2.7142966e-02
2.0526700e+00 8.6643400e-01 2.7188600e-02
2.0620689e+00 8.4160489e-01 2.4244436e-02
2.0702222e+00 8.1485222e-01 1.8310472e-02
2.0771300e+00 7.8617600e-01 9.3867100e-03
2.0771300e+00 7.8617600e-01 9.3867100e-03
2.0833578e+00 7.5500122e-01 1.6490500e-03
2.0882311e+00 7.2814522e-01 -5.1103533e-03
2.0917500e+00 7.0560800e-01 -1.0891500e-02
2.0939144e+00 6.8738956e-01 -1.5694390e-02
2.0947244e+00 6.7348989e-01 -1.9519023e-02
2.0941800e+00 6.6390900e-01 -2.2365400e-02
2.0941800e+00 6.6390900e-01 -2.2365400e-02
2.0947322e+00 6.6665522e-01 -2.1469612e-02
2.0965456e+00 6.6960256e-01 -2.0013179e-02
2.0996200e+00 6.7275100e-01 -1.7996100e-02
2.1039556e+00 6.7610056e-01 -1.5418376e-02
2.1095522e+00 6.7965122e-01 -1.2280006e-02
2.1164100e+00 6.8340300e-01 -8.5809900e-03
1.8563800e+00 9.2464000e-01 2.2971000e-02
1.8675956e+00 9.2443267e-01 4.2598722e-02
1.8774789e+00 9.2207567e-01 5.9589822e-02
1.8860300e+00 9.1756900e-01 7.3944300e-02
1.8932489e+00 9.1091267e-01 8.5662156e-02
1.8991356e+00 9.0210667e-01 9.4743389e-02
1.9036900e+00 8.9115100e-01 1.0118800e-01
2.1738200e+00 3.0339100e-01 -7.7189100e-02
2.1505678e+00 2.6912944e-01 -7.4435344e-02
2.1264011e+00 2.3601378e-01 -7.0465044e-02
2.1013200e+00 2.0404400e-01 -6.5278200e-02
2.0753244e+00 1.7322011e-01 -5.8874811e-02
2.0484144e+00 1.4354211e-01 -5.1254878e-02
2.0205900e+00 1.1501000e-01 -4.2418400e-02
2.0205900e+00 1.1501000e-01 -4.2418400e-02
2.0051878e+00 9.7777778e-02 -3.8161122e-02
1.9878644e+00 8.2449744e-02 -3.1853922e-02
1.9686200e+00 6.9025900e-02 -2.3496800e-02
1.9474544e+00 5.7506244e-02 -1.3089756e-02
1.9243678e+00 4.7890778e-02 -6.3278889e-04
1.8993600e+00 4.0179500e-02 1.3874100e-02
1.8993600e+00 4.0179500e-02 1.3874100e-02
1.8705089e+00 3.0969189e-02 2.7036556e-02
1.8409989e+00 2.2707122e-02 3.8746822e-02
1.8108300e+00 1.5393300e-02 4.9004900e-02
1.7800022e+00 9.0277220e-03 5.7810789e-02
1.7485156e+00 3.6103883e-03 6.5164489e-02
1.7163700e+00 -8.5870100e-04 7.1066000e-02
1.7163700e+00 -8.5870100e-04 7.1066000e-02
1.6754911e+00 -5.0388783e-03 7.4559556e-02
1.6341611e+00 -8.5081113e-03 7.6015322e-02
1.5923800e+00 -1.1266400e-02 7.5433300e-02
1.5501478e+00 -1.3313744e-02 7.2813489e-02
1.5074644e+00 -1.4650144e-02 6.8155889e-02
1.4643300e+00 -1.5275600e-02 6.1460500e-02
1.4643300e+00 -1.5275600e-02 6.1460500e-02
1.4278911e+00 -1.3216924e-02 5.6364056e-02
1.3922511e+00 -1.0372964e-02 5.0924222e-02
1.3574100e+00 -6.7437200e-03 4.5141000e-02
1.3233678e+00 -2.3291911e-03 3.9014389e-02
1.2901244e+00 2.8706222e-03 3.2544389e-02
1.2576800e+00 8.8557200e-03 2.5731000e-02
1.2576800e+00 8.8557200e-03 2.5731000e-02
1.2248200e+00 1.3589044e-02 1.7480272e-02
1.1917100e+00 1.8773604e-02 9.1876280e-03
1.1583500e+00 2.4409400e-02 8.5306900e-04
1.1247400e+00 3.0496431e-02 -7.5234053e-03
1.0908800e+00 3.7034698e-02 -1.5941795e-02
1.0567700e+00 4.4024200e-02 -2.4402100e-02
1.0567700e+00 4.4024200e-02 -2.4402100e-02
1.0252198e+00 4.9649200e-02 -3.2255144e-02
9.9150478e-01 5.6438400e-02 -3.9091511e-02
9.5562500e-01 6.4391800e-02 -4.4911200e-02
9.1758044e-01 7.3509400e-02 -4.9714211e-02
8.7737111e-01 8.3791200e-02 -5.3500544e-02
8.3499700e-01 9.5237200e-02 -5.6270200e-02
8.3499700e-01 9.5237200e-02 -5.6270200e-02
7.8666711e-01 1.0988378e-01 -5.7012467e-02
7.3910878e-01 1.2188904e-01 -5.6966233e-02
6.9232200e-01 1.3125300e-01 -5.6131500e-02
6.4630678e-01 1.3797564e-01 -5.4508267e-02
6.0106311e-01 1.4205698e-01 -5.2096533e-02
5.5659100e-01 1.4349700e-01 -4.8896300e-02
5.5659100e-01 1.4349700e-01 -4.8896300e-02
5.0843311e-01 1.4206833e-01 -4.5138944e-02
4.6279478e-01 1.3886800e-01 -4.0714144e-02
4.1967600e-01 1.3389600e-01 -3.5621900e-02
3.7907678e-01 1.2715233e-01 -2.9862211e-02
3.4099711e-01 1.1863700e-01 -2.3435078e-02
3.0543700e-01 1.0835000e-01 -1.6340500e-02
3.0543700e-01 1.0835000e-01 -1.6340500e-02
2.6884411e-01 9.8217300e-02 -4.8014778e-03
2.3401844e-01 8.7697367e-02 5.8226222e-03
2.0096000e-01 7.6790200e-02 1.5531800e-02
1.6966878e-01 6.5495800e-02 2.4326056e-02
1.4014478e-01 5.3814167e-02 3.2205389e-02
1.1238800e-01 4.1745300e-02 3.9169800e-02
1.1238800e-01 4.1745300e-02 3.9169800e-02
9.8522300e-02 3.5758922e-02 3.3398934e-02
8.3817700e-02 2.8441589e-02 2.7377067e-02
6.8274200e-02 1.9793300e-02 2.1104200e-02
5.1891800e-02 9.8140556e-03 1.4580332e-02
3.4670500e-02 -1.4961444e-03 7.8054639e-03
1.6610300e-02 -1.4137300e-02 7.7959500e-04
6.7742400e+00 4.4399400e-01 1.2628800e-01
6.7605056e+00 4.0669478e-01 1.3731444e-01
6.7458889e+00 3.7085744e-01 1.4808111e-01
6.7303900e+00 3.3648200e-01 1.5858800e-01
6.7140089e+00 3.0356844e-01 1.6883511e-01
6.6967456e+00 2.7211678e-01 1.7882244e-01
6.6786000e+00 2.4212700e-01 1.8855000e-01
6.6786000e+00 2.4212700e-01 1.8855000e-01
6.6622689e+00 2.2137867e-01 1.9583322e-01
6.6452422e+00 2.0604833e-01 2.0244589e-01
6.6275200e+00 1.9613600e-01 2.0838800e-01
6.6091022e+00 1.9164167e-01 2.1365956e-01
6.5899889e+00 1.9256533e-01 2.1826056e-01
6.5701800e+00 1.9890700e-01 2.2219100e-01
6.5701800e+00 1.9890700e-01 2.2219100e-01
6.5510878e+00 2.0429200e-01 2.2481589e-01
6.5303211e+00 2.1047767e-01 2.2757989e-01
6.5078800e+00 2.1746400e-01 2.3048300e-01
6.4837644e+00 2.2525100e-01 2.3352522e-01
6.4579744e+00 2.3383867e-01 2.3670656e-01
6.4305100e+00 2.4322700e-01 2.4002700e-01
6.4305100e+00 2.4322700e-01 2.4002700e-01
6.3934578e+00 2.5476000e-01 2.4673389e-01
6.3580111e+00 2.6058067e-01 2.5323122e-01
6.3241700e+00 2.6068900e-01 2.5951900e-01
6.2919344e+00 2.5508500e-01 2.6559722e-01
6.2613044e+00 2.4376867e-01 2.7146589e-01
6.2322800e+00 2.2674000e-01 2.7712500e-01
6.2322800e+00 2.2674000e-01 2.7712500e-01
6.2090956e+00 2.0672196e-01 2.7734322e-01
6.1871322e+00 1.8622162e-01 2.7522656e-01
6.1663900e+00 1.6523900e-01 2.7077500e-01
6.1468689e+00 1.4377409e-01 2.6398856e-01
6.1285689e+00 1.2182689e-01 2.5486722e-01
6.1114900e+00 9.9397400e-02 2.4341100e-01
6.1114900e+00 9.9397400e-02 2.4341100e-01
6.0856867e+00 1.2159989e-01 2.4570600e-01
6.0574633e+00 1.4264009e-01 2.4673133e-01
6.0268200e+00 1.6251800e-01 2.4648700e-01
5.9937567e+00 1.8123362e-01 2.4497300e-01
5.9582733e+00 1.9878696e-01 2.4218933e-01
5.9203700e+00 2.1517800e-01 2.3813600e-01
5.9203700e+00 2.1517800e-01 2.3813600e-01
5.8831344e+00 2.2625789e-01 2.2788200e-01
5.8480878e+00 2.3261522e-01 2.1615133e-01
5.8152300e+00 2.3425000e-01 2.0294400e-01
5.7845611e+00 2.3116222e-01 1.8826000e-01
5.7560811e+00 2.2335189e-01 1.7209933e-01
5.7297900e+00 2.1081900e-01 1.5446200e-01
5.7297900e+00 2.1081900e-01 1.5446200e-01
5.7063711e+00 1.9269787e-01 1.4286718e-01
5.6809978e+00 1.7418453e-01 1.3044318e-01
5.6536700e+00 1.5527900e-01 1.1719000e-01
5.6243878e+00 1.3598127e-01 1.0310764e-01
5.5931511e+00 1.1629133e-01 8.8196111e-02
5.5599600e+00 9.6209200e-02 7.2455400e-02
5.5599600e+00 9.6209200e-02 7.2455400e-02
5.5195244e+00 7.7917978e-02 5.2810144e-02
5.4763178e+00 6.4961544e-02 3.5153611e-02
5.4303400e+00 5.7339900e-02 1.9485800e-02
5.3815911e+00 5.5053044e-02 5.8067111e-03
5.3300711e+00 5.8100978e-02 -5.8836556e-03
5.2757800e+00 6.6483700e-02 -1.5585300e-02
5.2757800e+00 6.6483700e-02 -1.5585300e-02
5.2230411e+00 8.4636722e-02 -1.8854311e-02
5.1750578e+00 1.0244982e-01 -2.1330378e-02
5.1318300e+00 1.1992300e-01 -2.3013500e-02
5.0933578e+00 1.3705626e-01 -2.3903678e-02
5.0596411e+00 1.5384959e-01 -2.4000911e-02
5.0306800e+00 1.7030300e-01 -2.3305200e-02
5.1307800e+00 2.2109500e-01 -5.6181900e-02
5.1207744e+00 2.0745689e-01 -5.3502811e-02
5.1080978e+00 1.9588789e-01 -4.9703578e-02
5.0927500e+00 1.8638800e-01 -4.4784200e-02
5.0747311e+00 1.7895722e-01 -3.8744678e-02
5.0540411e+00 1.7359556e-01 -3.1585011e-02
5.0306800e+00 1.7030300e-01 -2.3305200e-02
6.4509000e+00 4.8114500e-01 1.3504500e-01
6.4300744e+00 4.6636356e-01 1.2165226e-01
6.4089178e+00 4.5115656e-01 1.0732946e-01
6.3874300e+00 4.3552400e-01 9.2076600e-02
6.3656111e+00 4.1946589e-01 7.5893689e-02
6.3434611e+00 4.0298222e-01 5.8780722e-02
6.3209800e+00 3.8607300e-01 4.0737700e-02
6.3209800e+00 3.8607300e-01 4.0737700e-02
6.2986889e+00 3.6457444e-01 2.2120088e-02
6.2769589e+00 3.4424378e-01 8.2270983e-03
6.2557900e+00 3.2508100e-01 -9.4126800e-04
6.2351822e+00 3.0708611e-01 -5.3850112e-03
6.2151356e+00 2.9025911e-01 -5.1041314e-03
6.1956500e+00 2.7460000e-01 -9.8628600e-05
6.1956500e+00 2.7460000e-01 -9.8628600e-05
6.1667189e+00 2.6953189e-01 2.2086429e-02
6.1359756e+00 2.6651556e-01 4.4291238e-02
6.1034200e+00 2.6555100e-01 6.6515800e-02
6.0690522e+00 2.6663822e-01 8.8760114e-02
6.0328722e+00 2.6977722e-01 1.1102418e-01
5.9948800e+00 2.7496800e-01 1.3330800e-01
5.9948800e+00 2.7496800e-01 1.3330800e-01
5.9586378e+00 2.8273989e-01 1.5642167e-01
5.9206678e+00 2.8845489e-01 1.7928633e-01
5.8809700e+00 2.9211300e-01 2.0190200e-01
5.8395444e+00 2.9371422e-01 2.2426867e-01
5.7963911e+00 2.9325856e-01 2.4638633e-01
5.7515100e+00 2.9074600e-01 2.6825500e-01
5.7515100e+00 2.9074600e-01 2.6825500e-01
5.7018978e+00 2.6898233e-01 2.5963884e-01
5.6489511e+00 2.5161133e-01 2.4208251e-01
5.5926700e+00 2.3863300e-01 2.1558600e-01
5.5330544e+00 2.3004733e-01 1.8014931e-01
5.4701044e+00 2.2585433e-01 1.3577244e-01
5.4038200e+00 2.2605400e-01 8.2455400e-02
5.4038200e+00 2.2605400e-01 8.2455400e-02
5.3454633e+00 2.2952833e-01 4.3582378e-02
5.2922467e+00 2.3128233e-01 1.1016078e-02
5.2441700e+00 2.3131600e-01 -1.5243500e-02
5.2012333e+00 2.2962933e-01 -3.5196356e-02
5.1634367e+00 2.2622233e-01 -4.8842489e-02
5.1307800e+00 2.2109500e-01 -5.6181900e-02
3.7732700e+00 4.0341200e-01 -6.1978100e-02
3.8083756e+00 3.7376911e-01 -5.5018289e-02
3.8498056e+00 3.4527378e-01 -5.0914789e-02
3.8975600e+00 3.1792600e-01 -4.9667600e-02
3.9516389e+00 2.9172578e-01 -5.1276722e-02
4.0120422e+00 2.6667311e-01 -5.5742156e-02
4.0787700e+00 2.4276800e-01 -6.3063900e-02
4.0787700e+00 2.4276800e-01 -6.3063900e-02
4.1487733e+00 2.3867989e-01 -6.3374078e-02
4.2183600e+00 2.4085022e-01 -6.1827044e-02
4.2875300e+00 2.4927900e-01 -5.8422800e-02
4.3562833e+00 2.6396622e-01 -5.3161344e-02
4.4246200e+00 2.8491189e-01 -4.6042678e-02
4.4925400e+00 3.1211600e-01 -3.7066800e-02
4.4925400e+00 3.1211600e-01 -3.7066800e-02
4.5547733e+00 3.3974522e-01 -3.3005344e-02
4.6170467e+00 3.6117189e-01 -2.9844178e-02
4.6793600e+00 3.7639600e-01 -2.7583300e-02
4.7417133e+00 3.8541756e-01 -2.6222711e-02
4.8041067e+00 3.8823656e-01 -2.5762411e-02
4.8665400e+00 3.8485300e-01 -2.6202400e-02
4.8665400e+00 3.8485300e-01 -2.6202400e-02
4.9244800e+00 3.6136500e-01 -3.0075344e-02
4.9768600e+00 3.3635500e-01 -3.4397744e-02
5.0236800e+00 3.0982300e-01 -3.9169600e-02
5.0649400e+00 2.8176900e-01 -4.4390911e-02
5.1006400e+00 2.5219300e-01 -5.0061678e-02
5.1307800e+00 2.2109500e-01 -5.6181900e-02