# vtk DataFile Version 2.0
test
ASCII
DATASET POLYDATA
POINTS 4361 float
5.7362922e+00 7.2480965e+00 1.1858547e+01
5.8519323e+00 7.3010899e+00 1.1735575e+01
5.9690565e+00 7.3526378e+00 1.1613464e+01
6.0876650e+00 7.4027401e+00 1.1492214e+01
6.2077577e+00 7.4513968e+00 1.1371825e+01
6.3293347e+00 7.4986079e+00 1.1252298e+01
6.4523958e+00 7.5443734e+00 1.1133631e+01
6.4523958e+00 7.5443734e+00 1.1133631e+01
6.5784345e+00 7.5985434e+00 1.1018754e+01
6.7102914e+00 7.6508784e+00 1.0911424e+01
6.8479665e+00 7.7013785e+00 1.0811640e+01
6.9914597e+00 7.7500437e+00 1.0719402e+01
7.1407711e+00 7.7968739e+00 1.0634711e+01
7.2959006e+00 7.8418691e+00 1.0557566e+01
7.2959006e+00 7.8418691e+00 1.0557566e+01
7.4634680e+00 7.8798994e+00 1.0503839e+01
7.6329118e+00 7.9159487e+00 1.0465795e+01
7.8042320e+00 7.9500170e+00 1.0443434e+01
7.9774286e+00 7.9821044e+00 1.0436755e+01
8.1525016e+00 8.0122109e+00 1.0445760e+01
8.3294511e+00 8.0403364e+00 1.0470447e+01
8.3294511e+00 8.0403364e+00 1.0470447e+01
8.5043223e+00 8.0643983e+00 1.0495333e+01
8.6788067e+00 8.0865786e+00 1.0523730e+01
8.8529042e+00 8.1068772e+00 1.0555639e+01
9.0266149e+00 8.1252941e+00 1.0591059e+01
9.1999386e+00 8.1418294e+00 1.0629991e+01
9.3728756e+00 8.1564831e+00 1.0672434e+01
9.3728756e+00 8.1564831e+00 1.0672434e+01
9.5455621e+00 8.1692269e+00 1.0716752e+01
9.7191796e+00 8.1800845e+00 1.0756723e+01
9.8937282e+00 8.1890561e+00 1.0792348e+01
1.0069208e+01 8.1961415e+00 1.0823627e+01
1.0245619e+01 8.2013408e+00 1.0850559e+01
1.0422960e+01 8.2046539e+00 1.0873145e+01
1.0422960e+01 8.2046539e+00 1.0873145e+01
1.0602987e+01 8.2051049e+00 1.0887131e+01
1.0781137e+01 8.2037168e+00 1.0886625e+01
1.0957409e+01 8.2004897e+00 1.0871627e+01
1.1131805e+01 8.1954236e+00 1.0842137e+01
1.1304323e+01 8.1885184e+00 1.0798156e+01
1.1474965e+01 8.1797742e+00 1.0739682e+01
1.1474965e+01 8.1797742e+00 1.0739682e+01
1.1638132e+01 8.1688927e+00 1.0663002e+01
1.1792696e+01 8.1596402e+00 1.0574664e+01
1.1938657e+01 8.1520167e+00 1.0474667e+01
1.2076014e+01 8.1460223e+00 1.0363012e+01
1.2204768e+01 8.1416570e+00 1.0239698e+01
1.2324918e+01 8.1389206e+00 1.0104726e+01
1.2324918e+01 8.1389206e+00 1.0104726e+01
1.2430861e+01 8.1588217e+00 9.9617596e+00
1.2535837e+01 8.1755068e+00 9.8176807e+00
1.2639844e+01 8.1889758e+00 9.6724896e+00
1.2742883e+01 8.1992287e+00 9.5261865e+00
1.2844953e+01 8.2062656e+00 9.3787712e+00
1.2946056e+01 8.2100864e+00 9.2302437e+00
1.2946056e+01 8.2100864e+00 9.2302437e+00
1.2838367e+01 8.1351207e+00 9.0981027e+00
1.2730592e+01 8.0563419e+00 8.9688141e+00
1.2622728e+01 7.9737498e+00 8.8423777e+00
1.2514777e+01 7.8873446e+00 8.7187937e+00
1.2406739e+01 7.7971262e+00 8.5980619e+00
1.2298613e+01 7.7030946e+00 8.4801824e+00
1.2298613e+01 7.7030946e+00 8.4801824e+00
1.2189575e+01 7.6279634e+00 8.3502268e+00
1.2084077e+01 7.5516141e+00 8.2184602e+00
1.1982119e+01 7.4740467e+00 8.0848826e+00
1.1883700e+01 7.3952612e+00 7.9494940e+00
1.1788820e+01 7.3152576e+00 7.8122944e+00
1.1697480e+01 7.2340360e+00 7.6732838e+00
1.1697480e+01 7.2340360e+00 7.6732838e+00
1.1612175e+01 7.1551820e+00 7.5283809e+00
1.1534398e+01 7.0740512e+00 7.3815594e+00
1.1464149e+01 6.9906435e+00 7.2328193e+00
1.1401427e+01 6.9049589e+00 7.0821604e+00
1.1346233e+01 6.8169974e+00 6.9295829e+00
1.1298567e+01 6.7267591e+00 6.7750866e+00
1.1298567e+01 6.7267591e+00 6.7750866e+00
1.1264367e+01 6.6340299e+00 6.6193449e+00
1.1239401e+01 6.5397727e+00 6.4637524e+00
1.1223669e+01 6.4439875e+00 6.3083091e+00
1.1217170e+01 6.3466743e+00 6.1530151e+00
1.1219905e+01 6.2478331e+00 5.9978703e+00
1.1231873e+01 6.1474640e+00 5.8428747e+00
1.1231873e+01 6.1474640e+00 5.8428747e+00
1.1252646e+01 6.0458612e+00 5.6903712e+00
1.1280006e+01 5.9426540e+00 5.5408274e+00
1.1313951e+01 5.8378425e+00 5.3942432e+00
1.1354483e+01 5.7314264e+00 5.2506187e+00
1.1401601e+01 5.6234060e+00 5.1099538e+00
1.1455306e+01 5.5137812e+00 4.9722486e+00
1.1455306e+01 5.5137812e+00 4.9722486e+00
1.1511558e+01 5.4034631e+00 4.8368250e+00
1.1569395e+01 5.2923690e+00 4.7027760e+00
1.1628817e+01 5.1804989e+00 4.5701016e+00
1.1689824e+01 5.0678526e+00 4.4388018e+00
1.1752416e+01 4.9544303e+00 4.3088766e+00
1.1816593e+01 4.8402320e+00 4.1803260e+00
1.1816593e+01 4.8402320e+00 4.1803260e+00
1.1879437e+01 4.7242794e+00 4.0529822e+00
1.1939178e+01 4.6055509e+00 3.9266228e+00
1.1995814e+01 4.4840466e+00 3.8012479e+00
1.2049347e+01 4.3597664e+00 3.6768575e+00
1.2099776e+01 4.2327103e+00 3.5534515e+00
1.2147100e+01 4.1028783e+00 3.4310300e+00
1.2147100e+01 4.1028783e+00 3.4310300e+00
1.2189582e+01 3.9701595e+00 3.3095190e+00
1.2224966e+01 3.8358946e+00 3.1882923e+00
1.2253251e+01 3.7000834e+00 3.0673498e+00
1.2274437e+01 3.5627260e+00 2.9466914e+00
1.2288524e+01 3.4238224e+00 2.8263174e+00
1.2295513e+01 3.2833725e+00 2.7062275e+00
1.2295513e+01 3.2833725e+00 2.7062275e+00
1.2294447e+01 3.1401075e+00 2.5882451e+00
1.2284580e+01 2.9964739e+00 2.4723223e+00
1.2265912e+01 2.8524718e+00 2.3584593e+00
1.2238442e+01 2.7081011e+00 2.2466560e+00
1.2202171e+01 2.5633620e+00 2.1369125e+00
1.2157099e+01 2.4182543e+00 2.0292286e+00
1.2157099e+01 2.4182543e+00 2.0292286e+00
1.2103237e+01 2.2769370e+00 1.9209608e+00
1.2043240e+01 2.1367888e+00 1.8150026e+00
1.1977108e+01 1.9978097e+00 1.7113538e+00
1.1904840e+01 1.8599996e+00 1.6100146e+00
1.1826438e+01 1.7233585e+00 1.5109849e+00
1.1741900e+01 1.5878865e+00 1.4142647e+00
1.1741900e+01 1.5878865e+00 1.4142647e+00
1.1648655e+01 1.4548392e+00 1.3219709e+00
1.1552492e+01 1.3227616e+00 1.2316897e+00
1.1453411e+01 1.1916538e+00 1.1434208e+00
1.1351413e+01 1.0615157e+00 1.0571644e+00
1.1246496e+01 9.3234738e-01 9.7292036e-01
1.1138662e+01 8.0414877e-01 8.9068880e-01
1.1138662e+01 8.0414877e-01 8.9068880e-01
1.1031867e+01 6.7329786e-01 8.0925154e-01
1.0924688e+01 5.4266338e-01 7.2838966e-01
1.0817124e+01 4.1224532e-01 6.4810315e-01
1.0709177e+01 2.8204369e-01 5.6839200e-01
1.0600844e+01 1.5205848e-01 4.8925623e-01
1.0492128e+01 2.2289700e-02 4.1069583e-01
3.4198700e+00 6.2257821e+00 1.1750877e+01
3.3782886e+00 6.1783035e+00 1.1570178e+01
3.3360819e+00 6.1259010e+00 1.1391254e+01
3.2932498e+00 6.0685745e+00 1.1214105e+01
3.2497923e+00 6.0063241e+00 1.1038731e+01
3.2057095e+00 5.9391497e+00 1.0865133e+01
3.1610012e+00 5.8670513e+00 1.0693310e+01
3.1610012e+00 5.8670513e+00 1.0693310e+01
3.1277463e+00 5.8103441e+00 1.0513308e+01
3.1006541e+00 5.7514550e+00 1.0333527e+01
3.0797246e+00 5.6903841e+00 1.0153966e+01
3.0649578e+00 5.6271312e+00 9.9746246e+00
3.0563538e+00 5.5616965e+00 9.7955038e+00
3.0539126e+00 5.4940799e+00 9.6166032e+00
3.0539126e+00 5.4940799e+00 9.6166032e+00
3.0620801e+00 5.4210173e+00 9.4392461e+00
3.0786984e+00 5.3444426e+00 9.2653334e+00
3.1037676e+00 5.2643560e+00 9.0948650e+00
3.1372876e+00 5.1807572e+00 8.9278408e+00
3.1792585e+00 5.0936464e+00 8.7642610e+00
3.2296802e+00 5.0030235e+00 8.6041255e+00
3.2296802e+00 5.0030235e+00 8.6041255e+00
3.2977040e+00 4.9065941e+00 8.4525245e+00
3.3772178e+00 4.8081494e+00 8.3112951e+00
3.4682216e+00 4.7076893e+00 8.1804372e+00
3.5707155e+00 4.6052138e+00 8.0599507e+00
3.6846993e+00 4.5007230e+00 7.9498358e+00
3.8101733e+00 4.3942167e+00 7.8500924e+00
3.8101733e+00 4.3942167e+00 7.8500924e+00
3.9336332e+00 4.2886388e+00 7.7518876e+00
4.0575225e+00 4.1823066e+00 7.6552199e+00
4.1818412e+00 4.0752204e+00 7.5600895e+00
4.3065893e+00 3.9673799e+00 7.4664961e+00
4.4317667e+00 3.8587853e+00 7.3744400e+00
4.5573735e+00 3.7494366e+00 7.2839210e+00
4.5573735e+00 3.7494366e+00 7.2839210e+00
4.6848003e+00 3.6375638e+00 7.1979678e+00
4.8081436e+00 3.5230689e+00 7.1100997e+00
4.9274032e+00 3.4059517e+00 7.0203166e+00
5.0425794e+00 3.2862122e+00 6.9286185e+00
5.1536719e+00 3.1638505e+00 6.8350056e+00
5.2606809e+00 3.0388666e+00 6.7394776e+00
5.2606809e+00 3.0388666e+00 6.7394776e+00
5.3602176e+00 2.9115006e+00 6.6373945e+00
5.4490642e+00 2.7824667e+00 6.5300458e+00
5.5272208e+00 2.6517651e+00 6.4174316e+00
5.5946873e+00 2.5193958e+00 6.2995519e+00
5.6514638e+00 2.3853587e+00 6.1764066e+00
5.6975502e+00 2.2496538e+00 6.0479959e+00
5.6975502e+00 2.2496538e+00 6.0479959e+00
5.7252605e+00 2.1137207e+00 5.9142427e+00
5.7414700e+00 1.9790429e+00 5.7792659e+00
5.7461788e+00 1.8456203e+00 5.6430654e+00
5.7393868e+00 1.7134531e+00 5.5056413e+00
5.7210941e+00 1.5825413e+00 5.3669935e+00
5.6913006e+00 1.4528847e+00 5.2271221e+00
5.6913006e+00 1.4528847e+00 5.2271221e+00
5.6547372e+00 1.3275868e+00 5.0853479e+00
5.6133680e+00 1.2041057e+00 4.9436104e+00
5.5671930e+00 1.0824415e+00 4.8019093e+00
5.5162123e+00 9.6259420e-01 4.6602448e+00
5.4604257e+00 8.4456375e-01 4.5186168e+00
5.3998334e+00 7.2835016e-01 4.3770253e+00
5.3998334e+00 7.2835016e-01 4.3770253e+00
5.3377267e+00 6.0826403e-01 4.2396547e+00
5.2746091e+00 4.8806473e-01 4.1027235e+00
5.2104808e+00 3.6775226e-01 3.9662319e+00
5.1453416e+00 2.4732663e-01 3.8301797e+00
5.0791916e+00 1.2678783e-01 3.6945670e+00
5.0120308e+00 6.1358700e-03 3.5593938e+00
2.1986400e+00 6.0363944e+00 1.3855525e+01
2.2746719e+00 6.1454430e+00 1.3711011e+01
2.3625789e+00 6.2526660e+00 1.3576021e+01
2.4623611e+00 6.3580632e+00 1.3450555e+01
2.5740183e+00 6.4616348e+00 1.3334611e+01
2.6975507e+00 6.5633807e+00 1.3228190e+01
2.8329582e+00 6.6633009e+00 1.3131293e+01
2.8329582e+00 6.6633009e+00 1.3131293e+01
2.9992075e+00 6.7465834e+00 1.3074197e+01
3.1711114e+00 6.8189963e+00 1.3029806e+01
3.3486700e+00 6.8805394e+00 1.2998119e+01
3.5318833e+00 6.9312128e+00 1.2979136e+01
3.7207513e+00 6.9710164e+00 1.2972857e+01
3.9152740e+00 6.9999504e+00 1.2979282e+01
3.9152740e+00 6.9999504e+00 1.2979282e+01
4.1105802e+00 7.0212831e+00 1.2986080e+01
4.3018471e+00 7.0426376e+00 1.2975202e+01
4.4890748e+00 7.0640139e+00 1.2946649e+01
4.6722632e+00 7.0854121e+00 1.2900420e+01
4.8514125e+00 7.1068320e+00 1.2836517e+01
5.0265225e+00 7.1282738e+00 1.2754938e+01
5.0265225e+00 7.1282738e+00 1.2754938e+01
5.1735837e+00 7.1554308e+00 1.2630390e+01
5.3091385e+00 7.1797132e+00 1.2495902e+01
5.4331867e+00 7.2011209e+00 1.2351474e+01
5.5457284e+00 7.2196541e+00 1.2197105e+01
[...]
POINT_DATA 4361
VECTORS U float
2.4393900e+00 7.8524800e-01 -8.7107600e-03
2.4591944e+00 7.6674533e-01 2.0113889e-03
2.4778478e+00 7.4647433e-01 1.1275242e-02
2.4953500e+00 7.2443500e-01 1.9080800e-02
2.5117011e+00 7.0062733e-01 2.5428062e-02
2.5269011e+00 6.7505133e-01 3.0317029e-02
2.5409500e+00 6.4770700e-01 3.3747700e-02
2.5409500e+00 6.4770700e-01 3.3747700e-02
2.5517989e+00 6.2756922e-01 3.6746411e-02
2.5612756e+00 6.0606422e-01 3.7165944e-02
2.5693800e+00 5.8319200e-01 3.5006300e-02
2.5761122e+00 5.5895256e-01 3.0267478e-02
2.5814722e+00 5.3334589e-01 2.2949478e-02
2.5854600e+00 5.0637200e-01 1.3052300e-02
2.5854600e+00 5.0637200e-01 1.3052300e-02
2.5933867e+00 4.7513367e-01 8.0274111e-03
2.6004433e+00 4.4577733e-01 5.9124244e-03
2.6066300e+00 4.1830300e-01 6.7073400e-03
2.6119467e+00 3.9271067e-01 1.0412158e-02
2.6163933e+00 3.6900033e-01 1.7026878e-02
2.6199700e+00 3.4717200e-01 2.6551500e-02
2.6199700e+00 3.4717200e-01 2.6551500e-02
2.6228922e+00 3.2588667e-01 2.8009078e-02
2.6253722e+00 3.0611167e-01 2.9302578e-02
2.6274100e+00 2.8784700e-01 3.0432000e-02
2.6290056e+00 2.7109267e-01 3.1397344e-02
2.6301589e+00 2.5584867e-01 3.2198611e-02
2.6308700e+00 2.4211500e-01 3.2835800e-02
2.6308700e+00 2.4211500e-01 3.2835800e-02
2.6308800e+00 2.2909444e-01 3.5507822e-02
2.6308200e+00 2.1694411e-01 3.7885589e-02
2.6306900e+00 2.0566400e-01 3.9969100e-02
2.6304900e+00 1.9525411e-01 4.1758356e-02
2.6302200e+00 1.8571444e-01 4.3253356e-02
2.6298800e+00 1.7704500e-01 4.4454100e-02
2.6298800e+00 1.7704500e-01 4.4454100e-02
2.6295189e+00 1.6837022e-01 4.5777156e-02
2.6288456e+00 1.6087022e-01 4.5802322e-02
2.6278600e+00 1.5454500e-01 4.4529600e-02
2.6265622e+00 1.4939456e-01 4.1958989e-02
2.6249522e+00 1.4541889e-01 3.8090489e-02
2.6230300e+00 1.4261800e-01 3.2924100e-02
2.6230300e+00 1.4261800e-01 3.2924100e-02
2.6211267e+00 1.4083500e-01 2.8455489e-02
2.6174500e+00 1.4231000e-01 2.2582389e-02
2.6120000e+00 1.4704300e-01 1.5304800e-02
2.6047767e+00 1.5503400e-01 6.6227222e-03
2.5957800e+00 1.6628300e-01 -3.4638444e-03
2.5850100e+00 1.8079000e-01 -1.4954900e-02
2.5850100e+00 1.8079000e-01 -1.4954900e-02
2.5663422e+00 2.1836778e-01 -3.0265511e-02
2.5493456e+00 2.5302911e-01 -4.4370378e-02
2.5340200e+00 2.8477400e-01 -5.7269500e-02
2.5203656e+00 3.1360244e-01 -6.8962878e-02
2.5083822e+00 3.3951444e-01 -7.9450511e-02
2.4980700e+00 3.6251000e-01 -8.8732400e-02
2.4980700e+00 3.6251000e-01 -8.8732400e-02
2.4852433e+00 3.5119222e-01 -7.6633467e-02
2.4709867e+00 3.3657589e-01 -6.1073067e-02
2.4553000e+00 3.1866100e-01 -4.2051200e-02
2.4381833e+00 2.9744756e-01 -1.9567867e-02
2.4196367e+00 2.7293556e-01 6.3769333e-03
2.3996600e+00 2.4512500e-01 3.5783200e-02
2.3996600e+00 2.4512500e-01 3.5783200e-02
2.3762556e+00 2.3726578e-01 5.4449556e-02
2.3516222e+00 2.2974711e-01 7.2863756e-02
2.3257600e+00 2.2256900e-01 9.1025800e-02
2.2986689e+00 2.1573144e-01 1.0893569e-01
2.2703489e+00 2.0923444e-01 1.2659342e-01
2.2408000e+00 2.0307800e-01 1.4399900e-01
2.2408000e+00 2.0307800e-01 1.4399900e-01
2.2102122e+00 2.0157478e-01 1.5779367e-01
2.1778522e+00 1.9983478e-01 1.7041833e-01
2.1437200e+00 1.9785800e-01 1.8187300e-01
2.1078156e+00 1.9564444e-01 1.9215767e-01
2.0701389e+00 1.9319411e-01 2.0127233e-01
2.0306900e+00 1.9050700e-01 2.0921700e-01
2.0306900e+00 1.9050700e-01 2.0921700e-01
1.9923322e+00 1.8723944e-01 2.1517667e-01
1.9533289e+00 1.8342144e-01 2.1889867e-01
1.9136800e+00 1.7905300e-01 2.2038300e-01
1.8733856e+00 1.7413411e-01 2.1962967e-01
1.8324456e+00 1.6866478e-01 2.1663867e-01
1.7908600e+00 1.6264500e-01 2.1141000e-01
1.7908600e+00 1.6264500e-01 2.1141000e-01
1.7499356e+00 1.5549422e-01 2.0459611e-01
1.7102256e+00 1.4713222e-01 1.9756444e-01
1.6717300e+00 1.3755900e-01 1.9031500e-01
1.6344489e+00 1.2677456e-01 1.8284778e-01
1.5983822e+00 1.1477889e-01 1.7516278e-01
1.5635300e+00 1.0157200e-01 1.6726000e-01
1.5635300e+00 1.0157200e-01 1.6726000e-01
1.5283589e+00 8.8094400e-02 1.5882856e-01
1.4932589e+00 7.4849067e-02 1.4977589e-01
1.4582300e+00 6.1836000e-02 1.4010200e-01
1.4232722e+00 4.9055200e-02 1.2980689e-01
1.3883856e+00 3.6506667e-02 1.1889056e-01
1.3535700e+00 2.4190400e-02 1.0735300e-01
1.3535700e+00 2.4190400e-02 1.0735300e-01
1.3174256e+00 1.1566444e-02 9.5749956e-02
1.2796989e+00 -1.7294889e-03 8.4389922e-02
1.2403900e+00 -1.5697400e-02 7.3272900e-02
1.1994989e+00 -3.0337289e-02 6.2398889e-02
1.1570256e+00 -4.5649156e-02 5.1767889e-02
1.1129700e+00 -6.1633000e-02 4.1379900e-02
1.1129700e+00 -6.1633000e-02 4.1379900e-02
1.0669464e+00 -7.7670444e-02 3.1849389e-02
1.0192051e+00 -9.2067778e-02 2.2632256e-02
9.6974600e-01 -1.0482500e-01 1.3728500e-02
9.1856911e-01 -1.1594211e-01 5.1381222e-03
8.6567444e-01 -1.2541911e-01 -3.1388778e-03
8.1106200e-01 -1.3325600e-01 -1.1102500e-02
8.1106200e-01 -1.3325600e-01 -1.1102500e-02
7.5654867e-01 -1.3987422e-01 -1.6519467e-02
7.0312200e-01 -1.4439689e-01 -2.0516800e-02
6.5078200e-01 -1.4682400e-01 -2.3094500e-02
5.9952867e-01 -1.4715556e-01 -2.4252567e-02
5.4936200e-01 -1.4539156e-01 -2.3991000e-02
5.0028200e-01 -1.4153200e-01 -2.2309800e-02
5.0028200e-01 -1.4153200e-01 -2.2309800e-02
4.5479422e-01 -1.3293987e-01 -2.2981911e-02
4.1247522e-01 -1.2368720e-01 -2.3440244e-02
3.7332500e-01 -1.1377400e-01 -2.3684800e-02
3.3734356e-01 -1.0320027e-01 -2.3715578e-02
3.0453089e-01 -9.1966000e-02 -2.3532578e-02
2.7488700e-01 -8.0071200e-02 -2.3135800e-02
2.7488700e-01 -8.0071200e-02 -2.3135800e-02
2.4361022e-01 -6.7742633e-02 -2.0852937e-02
2.1418456e-01 -5.5804967e-02 -1.8290637e-02
1.8661000e-01 -4.4258200e-02 -1.5448900e-02
1.6088656e-01 -3.3102333e-02 -1.2327727e-02
1.3701422e-01 -2.2337367e-02 -8.9271167e-03
1.1499300e-01 -1.1963300e-02 -5.2470700e-03
1.1499300e-01 -1.1963300e-02 -5.2470700e-03
9.6526678e-02 -5.4397889e-03 -1.9793944e-03
7.9018478e-02 7.5785111e-04 1.2788156e-03
6.2468400e-02 6.6296200e-03 4.5275600e-03
4.6876444e-02 1.2175518e-02 7.7668389e-03
3.2242611e-02 1.7395544e-02 1.0996652e-02
1.8566900e-02 2.2289700e-02 1.4217000e-02
2.2017500e+00 1.0142700e+00 1.0632200e-01
2.1827556e+00 1.0030227e+00 1.1314344e-01
2.1608356e+00 9.8743767e-01 1.2182078e-01
2.1359900e+00 9.6751500e-01 1.3235400e-01
2.1082189e+00 9.4325467e-01 1.4474311e-01
2.0775222e+00 9.1465667e-01 1.5898811e-01
2.0439000e+00 8.8172100e-01 1.7508900e-01
2.0439000e+00 8.8172100e-01 1.7508900e-01
2.0172389e+00 8.6538100e-01 1.8361489e-01
1.9887789e+00 8.4870767e-01 1.9130589e-01
1.9585200e+00 8.3170100e-01 1.9816200e-01
1.9264622e+00 8.1436100e-01 2.0418322e-01
1.8926056e+00 7.9668767e-01 2.0936956e-01
1.8569500e+00 7.7868100e-01 2.1372100e-01
1.8569500e+00 7.7868100e-01 2.1372100e-01
1.8191578e+00 7.5802856e-01 2.1716811e-01
1.7781811e+00 7.3605689e-01 2.1801211e-01
1.7340200e+00 7.1276600e-01 2.1625300e-01
1.6866744e+00 6.8815589e-01 2.1189078e-01
1.6361444e+00 6.6222656e-01 2.0492544e-01
1.5824300e+00 6.3497800e-01 1.9535700e-01
1.5824300e+00 6.3497800e-01 1.9535700e-01
1.5354244e+00 6.0348022e-01 1.8434611e-01
1.4937978e+00 5.7126556e-01 1.7656111e-01
1.4575500e+00 5.3833400e-01 1.7200200e-01
1.4266811e+00 5.0468556e-01 1.7066878e-01
1.4011911e+00 4.7032022e-01 1.7256144e-01
1.3810800e+00 4.3523800e-01 1.7768000e-01
1.3810800e+00 4.3523800e-01 1.7768000e-01
1.3566278e+00 4.0207511e-01 1.7884389e-01
1.3315144e+00 3.6980578e-01 1.7839222e-01
1.3057400e+00 3.3843000e-01 1.7632500e-01
1.2793044e+00 3.0794778e-01 1.7264222e-01
1.2522078e+00 2.7835911e-01 1.6734389e-01
1.2244500e+00 2.4966400e-01 1.6043000e-01
1.2244500e+00 2.4966400e-01 1.6043000e-01
1.1990178e+00 2.2049173e-01 1.5700111e-01
1.1717144e+00 1.9159207e-01 1.5241144e-01
1.1425400e+00 1.6296500e-01 1.4666100e-01
1.1114944e+00 1.3461053e-01 1.3974978e-01
1.0785778e+00 1.0652867e-01 1.3167778e-01
1.0437900e+00 7.8719400e-02 1.2244500e-01
1.0437900e+00 7.8719400e-02 1.2244500e-01
1.0050799e+00 5.2488139e-02 1.0953587e-01
9.6310422e-01 2.8607989e-02 9.5699167e-02
9.1786300e-01 7.0789500e-03 8.0934900e-02
8.6935622e-01 -1.2098978e-02 6.5243067e-02
8.1758389e-01 -2.8925794e-02 4.8623667e-02
7.6254600e-01 -4.3401500e-02 3.1076700e-02
7.6254600e-01 -4.3401500e-02 3.1076700e-02
7.0154956e-01 -5.3490478e-02 1.4905261e-02
6.4161389e-01 -6.0766911e-02 1.5774578e-03
5.8273900e-01 -6.5230800e-02 -8.9067100e-03
5.2492489e-01 -6.6882144e-02 -1.6547242e-02
4.6817156e-01 -6.5720944e-02 -2.1344139e-02
4.1247900e-01 -6.1747200e-02 -2.3297400e-02
4.1247900e-01 -6.1747200e-02 -2.3297400e-02
3.6311022e-01 -5.4804744e-02 -2.5450011e-02
3.1705922e-01 -4.7238344e-02 -2.6857211e-02
2.7432600e-01 -3.9048000e-02 -2.7519000e-02
2.3491056e-01 -3.0233711e-02 -2.7435378e-02
1.9881289e-01 -2.0795478e-02 -2.6606344e-02
1.6603300e-01 -1.0733300e-02 -2.5031900e-02
1.6603300e-01 -1.0733300e-02 -2.5031900e-02
1.3614844e-01 -6.0820744e-03 -1.9663750e-02
1.0754424e-01 -2.1667278e-03 -1.3917513e-02
8.0220400e-02 1.0127400e-03 -7.7931900e-03
5.4176913e-02 3.4563289e-03 -1.2907800e-03
2.9413783e-02 5.1640389e-03 5.5897167e-03
5.9310100e-03 6.1358700e-03 1.2848300e-02
2.1986400e+00 1.0666900e+00 -6.4258300e-02
2.2239744e+00 1.0726644e+00 -4.9384456e-02
2.2478211e+00 1.0753778e+00 -3.5130756e-02
2.2701800e+00 1.0748300e+00 -2.1497200e-02
2.2910511e+00 1.0710211e+00 -8.4837889e-03
2.3104344e+00 1.0639511e+00 3.9094778e-03
2.3283300e+00 1.0536200e+00 1.5682600e-02
2.3283300e+00 1.0536200e+00 1.5682600e-02
2.3427856e+00 1.0324386e+00 2.2648049e-02
2.3558089e+00 1.0091759e+00 2.6238349e-02
2.3674000e+00 9.8383200e-01 2.6453500e-02
2.3775589e+00 9.5640689e-01 2.3293502e-02
2.3862856e+00 9.2690056e-01 1.6758356e-02
2.3935800e+00 8.9531300e-01 6.8480600e-03
2.3935800e+00 8.9531300e-01 6.8480600e-03
2.4001044e+00 8.6088356e-01 -1.7229667e-03
2.4052211e+00 8.3133822e-01 -9.1161867e-03
2.4089300e+00 8.0667700e-01 -1.5331600e-02
2.4112311e+00 7.8689989e-01 -2.0369207e-02
2.4121244e+00 7.7200689e-01 -2.4229007e-02
2.4116100e+00 7.6199800e-01 -2.6911000e-02
2.4116100e+00 7.6199800e-01 -2.6911000e-02
2.4128289e+00 7.6570300e-01 -2.5150638e-02
2.4154122e+00 7.6947600e-01 -2.2881071e-02
2.4193600e+00 7.7331700e-01 -2.0102300e-02
2.4246722e+00 7.7722600e-01 -1.6814324e-02
2.4313489e+00 7.8120300e-01 -1.3017144e-02
2.4393900e+00 7.8524800e-01 -8.7107600e-03
2.1512600e+00 1.0475700e+00 2.0028300e-02
2.1632111e+00 1.0478700e+00 4.1948333e-02
2.1737478e+00 1.0458300e+00 6.0853267e-02
2.1828700e+00 1.0414500e+00 7.6743100e-02
2.1905778e+00 1.0347300e+00 8.9617833e-02
2.1968711e+00 1.0256700e+00 9.9477467e-02
2.2017500e+00 1.0142700e+00 1.0632200e-01
2.4980700e+00 3.6251000e-01 -8.8732400e-02
2.4696022e+00 3.2220233e-01 -8.5561511e-02
2.4399189e+00 2.8315733e-01 -8.0881411e-02
2.4090200e+00 2.4537500e-01 -7.4692100e-02
2.3769056e+00 2.0885533e-01 -6.6993578e-02
2.3435756e+00 1.7359833e-01 -5.7785844e-02
2.3090300e+00 1.3960400e-01 -4.7068900e-02
2.3090300e+00 1.3960400e-01 -4.7068900e-02
2.2895833e+00 1.1861763e-01 -4.1375089e-02
2.2680767e+00 9.9998067e-02 -3.3460556e-02
2.2445100e+00 8.3745300e-02 -2.3325300e-02
2.2188833e+00 6.9859333e-02 -1.0969322e-02
2.1911967e+00 5.8340167e-02 3.6073778e-03
2.1614500e+00 4.9187800e-02 2.0404800e-02
2.1614500e+00 4.9187800e-02 2.0404800e-02
2.1269989e+00 3.8491936e-02 3.5727522e-02
2.0918656e+00 2.8870269e-02 4.9260756e-02
2.0560500e+00 2.0322800e-02 6.1004500e-02
2.0195522e+00 1.2849529e-02 7.0958756e-02
1.9823722e+00 6.4504556e-03 7.9123522e-02
1.9445100e+00 1.1255800e-03 8.5498800e-02
1.9445100e+00 1.1255800e-03 8.5498800e-02
1.8978278e+00 -3.7126333e-03 8.8708856e-02
1.8508078e+00 -7.7488933e-03 8.9615789e-02
1.8034500e+00 -1.0983200e-02 8.8219600e-02
1.7557544e+00 -1.3415553e-02 8.4520289e-02
1.7077211e+00 -1.5045953e-02 7.8517856e-02
1.6593500e+00 -1.5874400e-02 7.0212300e-02
1.6593500e+00 -1.5874400e-02 7.0212300e-02
1.6182389e+00 -1.3729106e-02 6.3893878e-02
1.5781089e+00 -1.0707369e-02 5.7234744e-02
1.5389600e+00 -6.8091900e-03 5.0234900e-02
1.5007922e+00 -2.0345689e-03 4.2894344e-02
1.4636056e+00 3.6164944e-03 3.5213078e-02
1.4274000e+00 1.0144000e-02 2.7191100e-02
1.4274000e+00 1.0144000e-02 2.7191100e-02
1.3907867e+00 1.5305522e-02 1.7595883e-02
1.3539233e+00 2.0962822e-02 7.9501600e-03
1.3168100e+00 2.7115900e-02 -1.7460700e-03
1.2794467e+00 3.3764756e-02 -1.1492807e-02
1.2418333e+00 4.0909389e-02 -2.1290050e-02
1.2039700e+00 4.8549800e-02 -3.1137800e-02
1.2039700e+00 4.8549800e-02 -3.1137800e-02
1.1687573e+00 5.4717444e-02 -4.0260500e-02
1.1312673e+00 6.2172844e-02 -4.8278133e-02
1.0915000e+00 7.0916000e-02 -5.5190700e-02
1.0494553e+00 8.0946911e-02 -6.0998200e-02
1.0051333e+00 9.2265578e-02 -6.5700633e-02
9.5853400e-01 1.0487200e-01 -6.9298000e-02
9.5853400e-01 1.0487200e-01 -6.9298000e-02
9.0579578e-01 1.2091322e-01 -7.0936633e-02
8.5357978e-01 1.3413922e-01 -7.1649933e-02
8.0188600e-01 1.4455000e-01 -7.1437900e-02
7.5071444e-01 1.5214556e-01 -7.0300533e-02
7.0006511e-01 1.5692589e-01 -6.8237833e-02
6.4993800e-01 1.5889100e-01 -6.5249800e-02
6.4993800e-01 1.5889100e-01 -6.5249800e-02
5.9553100e-01 1.5786878e-01 -6.1599011e-02
5.4374533e-01 1.5488878e-01 -5.6804244e-02
4.9458100e-01 1.4995100e-01 -5.0865500e-02
4.4803800e-01 1.4305544e-01 -4.3782778e-02
4.0411633e-01 1.3420211e-01 -3.5556078e-02
3.6281600e-01 1.2339100e-01 -2.6185400e-02
3.6281600e-01 1.2339100e-01 -2.6185400e-02
3.1936933e-01 1.1299256e-01 -1.0422244e-02
2.7799233e-01 1.0191722e-01 4.0974222e-03
2.3868500e-01 9.0165000e-02 1.7373600e-02
2.0144733e-01 7.7735889e-02 2.9406289e-02
1.6627933e-01 6.4629889e-02 4.0195489e-02
1.3318100e-01 5.0847000e-02 4.9741200e-02
1.3318100e-01 5.0847000e-02 4.9741200e-02
1.1686288e-01 4.3463189e-02 4.2473657e-02
9.9438511e-02 3.4526022e-02 3.4821491e-02
8.0907900e-02 2.4035500e-02 2.6784700e-02
6.1271044e-02 1.1991622e-02 1.8363286e-02
4.0527944e-02 -1.6056111e-03 9.5572472e-03
1.8678600e-02 -1.6756200e-02 3.6658500e-04
7.7287500e+00 4.9683500e-01 1.3402700e-01
7.7122711e+00 4.5434100e-01 1.4644678e-01
7.6948211e+00 4.1356233e-01 1.5857111e-01
7.6764000e+00 3.7449900e-01 1.7040000e-01
7.6570078e+00 3.3715100e-01 1.8193344e-01
7.6366444e+00 3.0151833e-01 1.9317144e-01
7.6153100e+00 2.6760100e-01 2.0411400e-01
7.6153100e+00 2.6760100e-01 2.0411400e-01
7.5959922e+00 2.4385056e-01 2.1253667e-01
7.5757756e+00 2.2625956e-01 2.2013767e-01
7.5546600e+00 2.1482800e-01 2.2691700e-01
7.5326456e+00 2.0955589e-01 2.3287467e-01
7.5097322e+00 2.1044322e-01 2.3801067e-01
7.4859200e+00 2.1749000e-01 2.4232500e-01
7.4859200e+00 2.1749000e-01 2.4232500e-01
7.4632167e+00 2.2334389e-01 2.4498044e-01
7.4386900e+00 2.3013656e-01 2.4775244e-01
7.4123400e+00 2.3786800e-01 2.5064100e-01
7.3841667e+00 2.4653822e-01 2.5364611e-01
7.3541700e+00 2.5614722e-01 2.5676778e-01
7.3223500e+00 2.6669500e-01 2.6000600e-01
7.3223500e+00 2.6669500e-01 2.6000600e-01
7.2793978e+00 2.8005444e-01 2.6702700e-01
7.2382378e+00 2.8679611e-01 2.7382600e-01
7.1988700e+00 2.8692000e-01 2.8040300e-01
7.1612944e+00 2.8042611e-01 2.8675800e-01
7.1255111e+00 2.6731444e-01 2.9289100e-01
7.0915200e+00 2.4758500e-01 2.9880200e-01
7.0915200e+00 2.4758500e-01 2.9880200e-01
7.0642222e+00 2.2426178e-01 2.9826600e-01
7.0383556e+00 2.0046044e-01 2.9515700e-01
7.0139200e+00 1.7618100e-01 2.8947500e-01
6.9909156e+00 1.5142344e-01 2.8122000e-01
6.9693422e+00 1.2618778e-01 2.7039200e-01
6.9492000e+00 1.0047400e-01 2.5699100e-01
6.9492000e+00 1.0047400e-01 2.5699100e-01
6.9206789e+00 1.2651756e-01 2.5965256e-01
6.8893822e+00 1.5120389e-01 2.6094522e-01
6.8553100e+00 1.7453300e-01 2.6086900e-01
6.8184622e+00 1.9650489e-01 2.5942389e-01
6.7788389e+00 2.1711956e-01 2.5660989e-01
6.7364400e+00 2.3637700e-01 2.5242700e-01
6.7364400e+00 2.3637700e-01 2.5242700e-01
6.6944811e+00 2.4967700e-01 2.4126378e-01
6.6547678e+00 2.5751867e-01 2.2829811e-01
6.6173000e+00 2.5990200e-01 2.1353000e-01
6.5820778e+00 2.5682700e-01 1.9695944e-01
6.5491011e+00 2.4829367e-01 1.7858644e-01
6.5183700e+00 2.3430200e-01 1.5841100e-01
6.5183700e+00 2.3430200e-01 1.5841100e-01
6.4905133e+00 2.1358200e-01 1.4476704e-01
6.4604500e+00 1.9250300e-01 1.3024171e-01
6.4281800e+00 1.7106500e-01 1.1483500e-01
6.3937033e+00 1.4926800e-01 9.8546911e-02
6.3570200e+00 1.2711200e-01 8.1377444e-02
6.3181300e+00 1.0459700e-01 6.3326600e-02
6.3181300e+00 1.0459700e-01 6.3326600e-02
6.2711722e+00 8.4544311e-02 4.1142506e-02
6.2213522e+00 7.0631778e-02 2.1298902e-02
6.1686700e+00 6.2859400e-02 3.7957900e-03
6.1131256e+00 6.1227178e-02 -1.1366831e-02
6.0547189e+00 6.5735111e-02 -2.4188961e-02
5.9934500e+00 7.6383200e-02 -3.4670600e-02
5.9934500e+00 7.6383200e-02 -3.4670600e-02
5.9345378e+00 9.7728778e-02 -3.7867011e-02
5.8808778e+00 1.1865771e-01 -4.0274111e-02
5.8324700e+00 1.3917000e-01 -4.1891900e-02
5.7893144e+00 1.5926564e-01 -4.2720378e-02
5.7514111e+00 1.7894464e-01 -4.2759544e-02
5.7187600e+00 1.9820700e-01 -4.2009400e-02
5.8349300e+00 2.5449700e-01 -7.9486800e-02
5.8228933e+00 2.3953422e-01 -7.6016956e-02
5.8079267e+00 2.2680389e-01 -7.1436556e-02
5.7900300e+00 2.1630600e-01 -6.5745600e-02
5.7692033e+00 2.0804056e-01 -5.8944089e-02
5.7454467e+00 2.0200756e-01 -5.1032022e-02
5.7187600e+00 1.9820700e-01 -4.2009400e-02
7.3602500e+00 5.3761200e-01 1.4725700e-01
7.3362322e+00 5.2098522e-01 1.3206740e-01
7.3117189e+00 5.0383956e-01 1.1575013e-01
7.2867100e+00 4.8617500e-01 9.8305200e-02
7.2612056e+00 4.6799156e-01 7.9732600e-02
7.2352056e+00 4.4928922e-01 6.0032333e-02
7.2087100e+00 4.3006800e-01 3.9204400e-02
7.2087100e+00 4.3006800e-01 3.9204400e-02
7.1821433e+00 4.0529411e-01 1.7518720e-02
7.1562500e+00 3.8180778e-01 1.3428533e-03
7.1310300e+00 3.5960900e-01 -9.3232000e-03
7.1064833e+00 3.3869778e-01 -1.4479440e-02
7.0826100e+00 3.1907411e-01 -1.4125867e-02
7.0594100e+00 3.0073800e-01 -8.2624800e-03
7.0594100e+00 3.0073800e-01 -8.2624800e-03
7.0256856e+00 2.9560000e-01 1.7287678e-02
6.9899589e+00 2.9278400e-01 4.2711738e-02
6.9522300e+00 2.9229000e-01 6.8009700e-02
6.9124989e+00 2.9411800e-01 9.3181564e-02
6.8707656e+00 2.9826800e-01 1.1822733e-01
6.8270300e+00 3.0474000e-01 1.4314700e-01
6.8270300e+00 3.0474000e-01 1.4314700e-01
6.7852289e+00 3.1309489e-01 1.6829500e-01
6.7413756e+00 3.1903989e-01 1.9287000e-01
6.6954700e+00 3.2257500e-01 2.1687200e-01
6.6475122e+00 3.2370022e-01 2.4030100e-01
6.5975022e+00 3.2241556e-01 2.6315700e-01
6.5454400e+00 3.1872100e-01 2.8544000e-01
6.5454400e+00 3.1872100e-01 2.8544000e-01
6.4872044e+00 2.9464400e-01 2.7377941e-01
6.4254278e+00 2.7598800e-01 2.5257674e-01
6.3601100e+00 2.6275300e-01 2.2183200e-01
6.2912511e+00 2.5493900e-01 1.8154518e-01
6.2188511e+00 2.5254600e-01 1.3171628e-01
6.1429100e+00 2.5557400e-01 7.2345300e-02
6.1429100e+00 2.5557400e-01 7.2345300e-02
6.0763633e+00 2.6108200e-01 2.9191144e-02
6.0159033e+00 2.6431500e-01 -6.8234889e-03
5.9615300e+00 2.6527300e-01 -3.5698600e-02
5.9132433e+00 2.6395600e-01 -5.7434189e-02
5.8710433e+00 2.6036400e-01 -7.2030256e-02
5.8349300e+00 2.5449700e-01 -7.9486800e-02
4.3032200e+00 4.7374800e-01 -8.1079800e-02
4.3418833e+00 4.4045611e-01 -7.2790478e-02
4.3875033e+00 4.0822878e-01 -6.7597378e-02
4.4400800e+00 3.7706600e-01 -6.5500500e-02
4.4996133e+00 3.4696778e-01 -6.6499844e-02
4.5661033e+00 3.1793411e-01 -7.0595411e-02
4.6395500e+00 2.8996500e-01 -7.7787200e-02
4.6395500e+00 2.8996500e-01 -7.7787200e-02
4.7183389e+00 2.8348922e-01 -7.7953156e-02
4.7973389e+00 2.8417756e-01 -7.6175889e-02
4.8765500e+00 2.9203000e-01 -7.2455400e-02
4.9559722e+00 3.0704656e-01 -6.6791689e-02
5.0356056e+00 3.2922722e-01 -5.9184756e-02
5.1154500e+00 3.5857200e-01 -4.9634600e-02
5.1154500e+00 3.5857200e-01 -4.9634600e-02
5.1885111e+00 3.8883222e-01 -4.5753878e-02
5.2610944e+00 4.1210322e-01 -4.3020311e-02
5.3332000e+00 4.2838500e-01 -4.1433900e-02
5.4048278e+00 4.3767756e-01 -4.0994644e-02
5.4759778e+00 4.3998089e-01 -4.1702544e-02
5.5466500e+00 4.3529500e-01 -4.3557600e-02
5.5466500e+00 4.3529500e-01 -4.3557600e-02
5.6104356e+00 4.0894033e-01 -4.8941244e-02
5.6679256e+00 3.8107433e-01 -5.4566711e-02
5.7191200e+00 3.5169700e-01 -6.0434000e-02
5.7640189e+00 3.2080833e-01 -6.6543111e-02
5.8026222e+00 2.8840833e-01 -7.2894044e-02
5.8349300e+00 2.5449700e-01 -7.9486800e-02