# vtk DataFile Version 2.0
test
ASCII
DATASET POLYDATA
POINTS 4361 float
4.7908022e+00 6.9465995e+00 1.1858934e+01
4.9008345e+00 7.0068792e+00 1.1732741e+01
5.0128388e+00 7.0663361e+00 1.1608015e+01
5.1268150e+00 7.1249701e+00 1.1484755e+01
5.2427633e+00 7.1827811e+00 1.1362960e+01
5.3606836e+00 7.2397692e+00 1.1242632e+01
5.4805758e+00 7.2959344e+00 1.1123770e+01
5.4805758e+00 7.2959344e+00 1.1123770e+01
5.6043190e+00 7.3573568e+00 1.1008807e+01
5.7343692e+00 7.4172919e+00 1.0902385e+01
5.8707265e+00 7.4757395e+00 1.0804505e+01
6.0133908e+00 7.5326998e+00 1.0715167e+01
6.1623622e+00 7.5881727e+00 1.0634371e+01
6.3176406e+00 7.6421581e+00 1.0562116e+01
6.3176406e+00 7.6421581e+00 1.0562116e+01
6.4834614e+00 7.6910819e+00 1.0511249e+01
6.6513518e+00 7.7373626e+00 1.0474521e+01
6.8213120e+00 7.7810000e+00 1.0451932e+01
6.9933419e+00 7.8219943e+00 1.0443483e+01
7.1674416e+00 7.8603454e+00 1.0449173e+01
7.3436111e+00 7.8960534e+00 1.0469001e+01
7.3436111e+00 7.8960534e+00 1.0469001e+01
7.5180067e+00 7.9274719e+00 1.0492402e+01
7.6920945e+00 7.9565295e+00 1.0519575e+01
7.8658742e+00 7.9832262e+00 1.0550519e+01
8.0393460e+00 8.0075620e+00 1.0585236e+01
8.2125098e+00 8.0295370e+00 1.0623725e+01
8.3853656e+00 8.0491511e+00 1.0665986e+01
8.3853656e+00 8.0491511e+00 1.0665986e+01
8.5581988e+00 8.0666698e+00 1.0709220e+01
8.7319396e+00 8.0819751e+00 1.0748461e+01
8.9065882e+00 8.0950671e+00 1.0783708e+01
9.0821445e+00 8.1059456e+00 1.0814961e+01
9.2586086e+00 8.1146108e+00 1.0842221e+01
9.4359803e+00 8.1210626e+00 1.0865487e+01
9.4359803e+00 8.1210626e+00 1.0865487e+01
9.6161149e+00 8.1245781e+00 1.0879938e+01
9.7945479e+00 8.1258865e+00 1.0880391e+01
9.9712794e+00 8.1249877e+00 1.0866846e+01
1.0146309e+01 8.1218818e+00 1.0839304e+01
1.0319638e+01 8.1165688e+00 1.0797765e+01
1.0491265e+01 8.1090487e+00 1.0742228e+01
1.0491265e+01 8.1090487e+00 1.0742228e+01
1.0655680e+01 8.0990680e+00 1.0668488e+01
1.0811838e+01 8.0891515e+00 1.0583101e+01
1.0959737e+01 8.0792991e+00 1.0486067e+01
1.1099379e+01 8.0695109e+00 1.0377387e+01
1.1230762e+01 8.0597868e+00 1.0257059e+01
1.1353888e+01 8.0501269e+00 1.0125085e+01
1.1353888e+01 8.0501269e+00 1.0125085e+01
1.1464789e+01 8.0539242e+00 9.9847834e+00
1.1574021e+01 8.0557955e+00 9.8431936e+00
1.1681584e+01 8.0557408e+00 9.7003150e+00
1.1787477e+01 8.0537600e+00 9.5561477e+00
1.1891701e+01 8.0498532e+00 9.4106917e+00
1.1994256e+01 8.0440204e+00 9.2639469e+00
1.1994256e+01 8.0440204e+00 9.2639469e+00
1.1891223e+01 7.9735526e+00 9.1279659e+00
1.1788527e+01 7.9004264e+00 8.9933195e+00
1.1686168e+01 7.8246418e+00 8.8600076e+00
1.1584146e+01 7.7461988e+00 8.7280303e+00
1.1482461e+01 7.6650974e+00 8.5973876e+00
1.1381113e+01 7.5813376e+00 8.4680794e+00
1.1381113e+01 7.5813376e+00 8.4680794e+00
1.1280352e+01 7.5092931e+00 8.3312613e+00
1.1183560e+01 7.4362544e+00 8.1924896e+00
1.1090739e+01 7.3622217e+00 8.0517645e+00
1.1001886e+01 7.2871949e+00 7.9090860e+00
1.0917003e+01 7.2111740e+00 7.7644539e+00
1.0836090e+01 7.1341590e+00 7.6178685e+00
1.0836090e+01 7.1341590e+00 7.6178685e+00
1.0762067e+01 7.0569129e+00 7.4670222e+00
1.0696184e+01 6.9774887e+00 7.3146062e+00
1.0638439e+01 6.8958865e+00 7.1606203e+00
1.0588832e+01 6.8121061e+00 7.0050645e+00
1.0547365e+01 6.7261476e+00 6.8479390e+00
1.0514037e+01 6.6380111e+00 6.6892436e+00
1.0514037e+01 6.6380111e+00 6.6892436e+00
1.0492925e+01 6.5475864e+00 6.5299632e+00
1.0482139e+01 6.4557238e+00 6.3717671e+00
1.0481679e+01 6.3624234e+00 6.2146551e+00
1.0491544e+01 6.2676852e+00 6.0586274e+00
1.0511736e+01 6.1715091e+00 5.9036839e+00
1.0542253e+01 6.0738952e+00 5.7498247e+00
1.0542253e+01 6.0738952e+00 5.7498247e+00
1.0581233e+01 5.9755092e+00 5.5993752e+00
1.0626289e+01 5.8760445e+00 5.4520450e+00
1.0677421e+01 5.7755010e+00 5.3078342e+00
1.0734629e+01 5.6738786e+00 5.1667428e+00
1.0797913e+01 5.5711774e+00 5.0287707e+00
1.0867272e+01 5.4673974e+00 4.8939181e+00
1.0867272e+01 5.4673974e+00 4.8939181e+00
1.0939597e+01 5.3634072e+00 4.7614194e+00
1.1013507e+01 5.2584745e+00 4.6306384e+00
1.1089001e+01 5.1525995e+00 4.5015752e+00
1.1166078e+01 5.0457819e+00 4.3742298e+00
1.1244740e+01 4.9380220e+00 4.2486021e+00
1.1324986e+01 4.8293196e+00 4.1246922e+00
1.1324986e+01 4.8293196e+00 4.1246922e+00
1.1404352e+01 4.7184521e+00 4.0023246e+00
1.1481268e+01 4.6050677e+00 3.8806925e+00
1.1555734e+01 4.4891661e+00 3.7597959e+00
1.1627752e+01 4.3707475e+00 3.6396350e+00
1.1697319e+01 4.2498118e+00 3.5202096e+00
1.1764437e+01 4.1263591e+00 3.4015198e+00
1.1764437e+01 4.1263591e+00 3.4015198e+00
1.1826949e+01 4.0000121e+00 3.2828224e+00
1.1882487e+01 3.8711455e+00 3.1642890e+00
1.1931052e+01 3.7397594e+00 3.0459193e+00
1.1972642e+01 3.6058537e+00 2.9277136e+00
1.2007259e+01 3.4694284e+00 2.8096717e+00
1.2034901e+01 3.3304835e+00 2.6917937e+00
1.2034901e+01 3.3304835e+00 2.6917937e+00
1.2054496e+01 3.1879190e+00 2.5755933e+00
1.2064357e+01 3.0443335e+00 2.4610132e+00
1.2064487e+01 2.8997271e+00 2.3480533e+00
1.2054883e+01 2.7540997e+00 2.2367137e+00
1.2035547e+01 2.6074515e+00 2.1269943e+00
1.2006478e+01 2.4597823e+00 2.0188952e+00
1.2006478e+01 2.4597823e+00 2.0188952e+00
1.1966517e+01 2.3148638e+00 1.9109592e+00
1.1919260e+01 2.1711186e+00 1.8053824e+00
1.1864708e+01 2.0285468e+00 1.7021646e+00
1.1802860e+01 1.8871483e+00 1.6013060e+00
1.1733718e+01 1.7469231e+00 1.5028065e+00
1.1657280e+01 1.6078713e+00 1.4066662e+00
1.1657280e+01 1.6078713e+00 1.4066662e+00
1.1573072e+01 1.4711739e+00 1.3140854e+00
1.1485420e+01 1.3355697e+00 1.2235209e+00
1.1394323e+01 1.2010586e+00 1.1349727e+00
1.1299782e+01 1.0676408e+00 1.0484408e+00
1.1201795e+01 9.3531607e-01 9.6392529e-01
1.1100364e+01 8.0408457e-01 8.8142607e-01
1.1100364e+01 8.0408457e-01 8.8142607e-01
1.0998935e+01 6.7148263e-01 8.0041911e-01
1.0896890e+01 5.3909210e-01 7.1997299e-01
1.0794230e+01 4.0691297e-01 6.4008770e-01
1.0690955e+01 2.7494525e-01 5.6076324e-01
1.0587064e+01 1.4318892e-01 4.8199963e-01
1.0482559e+01 1.1644000e-02 4.0379684e-01
2.5510100e+00 5.8546341e+00 1.1727578e+01
2.5163175e+00 5.8117925e+00 1.1544015e+01
2.4821041e+00 5.7656340e+00 1.1361287e+01
2.4483698e+00 5.7161585e+00 1.1179393e+01
2.4151145e+00 5.6633661e+00 1.0998333e+01
2.3823383e+00 5.6072567e+00 1.0818107e+01
2.3500412e+00 5.5478303e+00 1.0638716e+01
2.3500412e+00 5.5478303e+00 1.0638716e+01
2.3263018e+00 5.4977312e+00 1.0454848e+01
2.3094096e+00 5.4454752e+00 1.0271455e+01
2.2993646e+00 5.3910621e+00 1.0088536e+01
2.2961667e+00 5.3344920e+00 9.9060906e+00
2.2998161e+00 5.2757649e+00 9.7241198e+00
2.3103126e+00 5.2148809e+00 9.5426232e+00
2.3103126e+00 5.2148809e+00 9.5426232e+00
2.3335046e+00 5.1488167e+00 9.3632107e+00
2.3665829e+00 5.0795404e+00 9.1882186e+00
2.4095476e+00 5.0070520e+00 9.0176470e+00
2.4623985e+00 4.9313513e+00 8.8514957e+00
2.5251357e+00 4.8524385e+00 8.6897649e+00
2.5977592e+00 4.7703135e+00 8.5324545e+00
2.5977592e+00 4.7703135e+00 8.5324545e+00
2.6848318e+00 4.6843705e+00 8.3842495e+00
2.7813025e+00 4.5969004e+00 8.2453671e+00
2.8871716e+00 4.5079033e+00 8.1158072e+00
3.0024389e+00 4.4173791e+00 7.9955697e+00
3.1271045e+00 4.3253280e+00 7.8846548e+00
3.2611683e+00 4.2317497e+00 7.7830624e+00
3.2611683e+00 4.2317497e+00 7.7830624e+00
3.3947839e+00 4.1384740e+00 7.6841996e+00
3.5291962e+00 4.0441402e+00 7.5876536e+00
3.6644052e+00 3.9487484e+00 7.4934245e+00
3.8004109e+00 3.8522985e+00 7.4015121e+00
3.9372134e+00 3.7547905e+00 7.3119167e+00
4.0748125e+00 3.6562246e+00 7.2246380e+00
4.0748125e+00 3.6562246e+00 7.2246380e+00
4.2137552e+00 3.5555998e+00 7.1412274e+00
4.3495798e+00 3.4523958e+00 7.0562822e+00
4.4822862e+00 3.3466127e+00 6.9698024e+00
4.6118746e+00 3.2382503e+00 6.8817879e+00
4.7383448e+00 3.1273088e+00 6.7922388e+00
4.8616969e+00 3.0137880e+00 6.7011551e+00
4.8616969e+00 3.0137880e+00 6.7011551e+00
4.9796616e+00 2.8973732e+00 6.6047846e+00
5.0881055e+00 2.7779653e+00 6.5033761e+00
5.1870288e+00 2.6555642e+00 6.3969297e+00
5.2764313e+00 2.5301699e+00 6.2854452e+00
5.3563131e+00 2.4017824e+00 6.1689228e+00
5.4266742e+00 2.2704018e+00 6.0473624e+00
5.4266742e+00 2.2704018e+00 6.0473624e+00
5.4794258e+00 2.1360747e+00 5.9193474e+00
5.5195377e+00 2.0022049e+00 5.7888128e+00
5.5470098e+00 1.8687925e+00 5.6557585e+00
5.5618422e+00 1.7358375e+00 5.5201845e+00
5.5640348e+00 1.6033398e+00 5.3820909e+00
5.5535876e+00 1.4712995e+00 5.2414776e+00
5.5535876e+00 1.4712995e+00 5.2414776e+00
5.5336628e+00 1.3436140e+00 5.0989535e+00
5.5076309e+00 1.2176019e+00 4.9564156e+00
5.4754920e+00 1.0932634e+00 4.8138637e+00
5.4372461e+00 9.7059838e-01 4.6712979e+00
5.3928933e+00 8.4960685e-01 4.5287182e+00
5.3424334e+00 7.3028880e-01 4.3861246e+00
5.3424334e+00 7.3028880e-01 4.3861246e+00
5.2900445e+00 6.0882122e-01 4.2466909e+00
5.2363781e+00 4.8745530e-01 4.1075363e+00
5.1814342e+00 3.6619104e-01 3.9686608e+00
5.1252127e+00 2.4502846e-01 3.8300644e+00
5.0677136e+00 1.2396754e-01 3.6917471e+00
5.0089370e+00 3.0082900e-03 3.5537089e+00
1.3317300e+00 5.6585634e+00 1.3890288e+01
1.3991875e+00 5.7651797e+00 1.3739907e+01
1.4790911e+00 5.8710270e+00 1.3599280e+01
1.5714411e+00 5.9761052e+00 1.3468407e+01
1.6762372e+00 6.0804145e+00 1.3347287e+01
1.7934796e+00 6.1839547e+00 1.3235920e+01
1.9231682e+00 6.2867259e+00 1.3134306e+01
1.9231682e+00 6.2867259e+00 1.3134306e+01
2.0851708e+00 6.3766601e+00 1.3074402e+01
2.2533747e+00 6.4563093e+00 1.3028389e+01
2.4277800e+00 6.5256734e+00 1.2996269e+01
2.6083866e+00 6.5847524e+00 1.2978041e+01
2.7951946e+00 6.6335464e+00 1.2973706e+01
2.9882040e+00 6.6720554e+00 1.2983263e+01
2.9882040e+00 6.6720554e+00 1.2983263e+01
3.1822957e+00 6.7040270e+00 1.2992738e+01
3.3725960e+00 6.7342652e+00 1.2983989e+01
3.5591048e+00 6.7627699e+00 1.2957017e+01
3.7418221e+00 6.7895413e+00 1.2911822e+01
3.9207480e+00 6.8145792e+00 1.2848404e+01
4.0958825e+00 6.8378838e+00 1.2766762e+01
4.0958825e+00 6.8378838e+00 1.2766762e+01
4.2413660e+00 6.8624493e+00 1.2640144e+01
4.3749840e+00 6.8844364e+00 1.2503652e+01
4.4967367e+00 6.9038449e+00 1.2357284e+01
4.6066240e+00 6.9206749e+00 1.2201042e+01
[...]
POINT_DATA 4361
VECTORS U float
1.4939000e+00 4.8375100e-01 -8.3238100e-03
1.5080967e+00 4.7253467e-01 -8.2215000e-04
1.5216300e+00 4.6017267e-01 5.8262200e-03
1.5345000e+00 4.4666500e-01 1.1621300e-02
1.5467067e+00 4.3201167e-01 1.6563090e-02
1.5582500e+00 4.1621267e-01 2.0651590e-02
1.5691300e+00 3.9926800e-01 2.3886800e-02
1.5691300e+00 3.9926800e-01 2.3886800e-02
1.5776833e+00 3.8638267e-01 2.6798756e-02
1.5853533e+00 3.7247767e-01 2.8127022e-02
1.5921400e+00 3.5755300e-01 2.7871600e-02
1.5980433e+00 3.4160867e-01 2.6032489e-02
1.6030633e+00 3.2464467e-01 2.2609689e-02
1.6072000e+00 3.0666100e-01 1.7603200e-02
1.6072000e+00 3.0666100e-01 1.7603200e-02
1.6133800e+00 2.8631622e-01 1.5437756e-02
1.6188833e+00 2.6719122e-01 1.4638689e-02
1.6237100e+00 2.4928600e-01 1.5206000e-02
1.6278600e+00 2.3260056e-01 1.7139689e-02
1.6313333e+00 2.1713489e-01 2.0439756e-02
1.6341300e+00 2.0288900e-01 2.5106200e-02
1.6341300e+00 2.0288900e-01 2.5106200e-02
1.6365767e+00 1.8896022e-01 2.5078544e-02
1.6386600e+00 1.7606256e-01 2.5147411e-02
1.6403800e+00 1.6419600e-01 2.5312800e-02
1.6417367e+00 1.5336056e-01 2.5574711e-02
1.6427300e+00 1.4355622e-01 2.5933144e-02
1.6433600e+00 1.3478300e-01 2.6388100e-02
1.6433600e+00 1.3478300e-01 2.6388100e-02
1.6435167e+00 1.2653737e-01 2.7976433e-02
1.6435800e+00 1.1883470e-01 2.9623300e-02
1.6435500e+00 1.1167500e-01 3.1328700e-02
1.6434267e+00 1.0505827e-01 3.3092633e-02
1.6432100e+00 9.8984500e-02 3.4915100e-02
1.6429000e+00 9.3453700e-02 3.6796100e-02
1.6429000e+00 9.3453700e-02 3.6796100e-02
1.6426467e+00 8.7843444e-02 3.8583933e-02
1.6422567e+00 8.3039878e-02 3.9568200e-02
1.6417300e+00 7.9043000e-02 3.9748900e-02
1.6410667e+00 7.5852811e-02 3.9126033e-02
1.6402667e+00 7.3469311e-02 3.7699600e-02
1.6393300e+00 7.1892500e-02 3.5469600e-02
1.6393300e+00 7.1892500e-02 3.5469600e-02
1.6386744e+00 7.1010356e-02 3.3941243e-02
1.6365911e+00 7.1821322e-02 3.1019810e-02
1.6330800e+00 7.4325400e-02 2.6705300e-02
1.6281411e+00 7.8522589e-02 2.0997713e-02
1.6217744e+00 8.4412889e-02 1.3897050e-02
1.6139800e+00 9.1996300e-02 5.4033100e-03
1.6139800e+00 9.1996300e-02 5.4033100e-03
1.6002700e+00 1.1347028e-01 -7.2416389e-03
1.5875300e+00 1.3331784e-01 -1.8857442e-02
1.5757600e+00 1.5153900e-01 -2.9444100e-02
1.5649600e+00 1.6813374e-01 -3.9001612e-02
1.5551300e+00 1.8310208e-01 -4.7529979e-02
1.5462700e+00 1.9644400e-01 -5.5029200e-02
1.5462700e+00 1.9644400e-01 -5.5029200e-02
1.5380989e+00 1.8962411e-01 -4.6770300e-02
1.5289222e+00 1.8066044e-01 -3.6567667e-02
1.5187400e+00 1.6955300e-01 -2.4421300e-02
1.5075522e+00 1.5630178e-01 -1.0331200e-02
1.4953589e+00 1.4090678e-01 5.7026333e-03
1.4821600e+00 1.2336800e-01 2.3680200e-02
1.4821600e+00 1.2336800e-01 2.3680200e-02
1.4670322e+00 1.1859544e-01 3.5483978e-02
1.4511056e+00 1.1438744e-01 4.6893144e-02
1.4343800e+00 1.1074400e-01 5.7907700e-02
1.4168556e+00 1.0766511e-01 6.8527644e-02
1.3985322e+00 1.0515078e-01 7.8752978e-02
1.3794100e+00 1.0320100e-01 8.8583700e-02
1.3794100e+00 1.0320100e-01 8.8583700e-02
1.3601044e+00 1.0330567e-01 9.6434944e-02
1.3396378e+00 1.0327233e-01 1.0346504e-01
1.3180100e+00 1.0310100e-01 1.0967400e-01
1.2952211e+00 1.0279167e-01 1.1506181e-01
1.2712711e+00 1.0234433e-01 1.1962848e-01
1.2461600e+00 1.0175900e-01 1.2337400e-01
1.2461600e+00 1.0175900e-01 1.2337400e-01
1.2208900e+00 1.0079592e-01 1.2579500e-01
1.1960667e+00 9.9372556e-02 1.2691333e-01
1.1716900e+00 9.7488900e-02 1.2672900e-01
1.1477600e+00 9.5144956e-02 1.2524200e-01
1.1242767e+00 9.2340722e-02 1.2245233e-01
1.1012400e+00 8.9076200e-02 1.1836000e-01
1.1012400e+00 8.9076200e-02 1.1836000e-01
1.0785227e+00 8.5142256e-02 1.1360006e-01
1.0565093e+00 8.0522689e-02 1.0878206e-01
1.0352000e+00 7.5217500e-02 1.0390600e-01
1.0145947e+00 6.9226689e-02 9.8971889e-02
9.9469333e-01 6.2550256e-02 9.3979722e-02
9.7549600e-01 5.5188200e-02 8.8929500e-02
9.7549600e-01 5.5188200e-02 8.8929500e-02
9.5639856e-01 4.8038444e-02 8.3422922e-02
9.3737122e-01 4.0954578e-02 7.7638289e-02
9.1841400e-01 3.3936600e-02 7.1575600e-02
8.9952689e-01 2.6984511e-02 6.5234856e-02
8.8070989e-01 2.0098311e-02 5.8616056e-02
8.6196300e-01 1.3278000e-02 5.1719200e-02
8.6196300e-01 1.3278000e-02 5.1719200e-02
8.4233978e-01 5.7391889e-03 4.5092311e-02
8.2178878e-01 -2.2127778e-03 3.8459544e-02
8.0031000e-01 -1.0577900e-02 3.1820900e-02
7.7790344e-01 -1.9356178e-02 2.5176378e-02
7.5456911e-01 -2.8547611e-02 1.8525978e-02
7.3030700e-01 -3.8152200e-02 1.1869700e-02
7.3030700e-01 -3.8152200e-02 1.1869700e-02
7.0431333e-01 -4.7817889e-02 5.1527944e-03
6.7672667e-01 -5.6816822e-02 -1.3710822e-03
6.4754700e-01 -6.5149000e-02 -7.7019300e-03
6.1677433e-01 -7.2814422e-02 -1.3839749e-02
5.8440867e-01 -7.9813089e-02 -1.9784539e-02
5.5045000e-01 -8.6145000e-02 -2.5536300e-02
5.5045000e-01 -8.6145000e-02 -2.5536300e-02
5.1659711e-01 -9.2062722e-02 -2.9171200e-02
4.8289944e-01 -9.6537289e-02 -3.1825933e-02
4.4935700e-01 -9.9568700e-02 -3.3500500e-02
4.1596978e-01 -1.0115696e-01 -3.4194900e-02
3.8273778e-01 -1.0130206e-01 -3.3909133e-02
3.4966100e-01 -1.0000400e-01 -3.2643200e-02
3.4966100e-01 -1.0000400e-01 -3.2643200e-02
3.1807367e-01 -9.5013122e-02 -3.2983522e-02
2.8849500e-01 -8.9357422e-02 -3.3060456e-02
2.6092500e-01 -8.3036900e-02 -3.2874000e-02
2.3536367e-01 -7.6051556e-02 -3.2424156e-02
2.1181100e-01 -6.8401389e-02 -3.1710922e-02
1.9026700e-01 -6.0086400e-02 -3.0734300e-02
1.9026700e-01 -6.0086400e-02 -3.0734300e-02
1.6802776e-01 -5.1407944e-02 -2.8738522e-02
1.4711276e-01 -4.2996944e-02 -2.6459422e-02
1.2752200e-01 -3.4853400e-02 -2.3897000e-02
1.0925549e-01 -2.6977311e-02 -2.1051256e-02
9.2313222e-02 -1.9368678e-02 -1.7922189e-02
7.6695200e-02 -1.2027500e-02 -1.4509800e-02
7.6695200e-02 -1.2027500e-02 -1.4509800e-02
6.3594037e-02 -7.2550167e-03 -1.0811829e-02
5.1220170e-02 -2.8134267e-03 -7.1378589e-03
3.9573600e-02 1.2972700e-03 -3.4878900e-03
2.8654327e-02 5.0770733e-03 1.3807778e-04
1.8462350e-02 8.5259833e-03 3.7400444e-03
8.9976700e-03 1.1644000e-02 7.3180100e-03
1.3328900e+00 6.4312200e-01 8.3023000e-02
1.3207844e+00 6.3651167e-01 8.6981111e-02
1.3068578e+00 6.2717067e-01 9.1854111e-02
1.2911100e+00 6.1509900e-01 9.7642000e-02
1.2735411e+00 6.0029667e-01 1.0434478e-01
1.2541511e+00 5.8276367e-01 1.1196244e-01
1.2329400e+00 5.6250000e-01 1.2049500e-01
1.2329400e+00 5.6250000e-01 1.2049500e-01
1.2157944e+00 5.5276811e-01 1.2515489e-01
1.1975344e+00 5.4272778e-01 1.2923389e-01
1.1781600e+00 5.3237900e-01 1.3273200e-01
1.1576711e+00 5.2172178e-01 1.3564922e-01
1.1360678e+00 5.1075611e-01 1.3798556e-01
1.1133500e+00 4.9948200e-01 1.3974100e-01
1.1133500e+00 4.9948200e-01 1.3974100e-01
1.0905823e+00 4.8582800e-01 1.4113267e-01
1.0660657e+00 4.7115467e-01 1.4089733e-01
1.0398000e+00 4.5546200e-01 1.3903500e-01
1.0117853e+00 4.3875000e-01 1.3554567e-01
9.8202167e-01 4.2101867e-01 1.3042933e-01
9.5050900e-01 4.0226800e-01 1.2368600e-01
9.5050900e-01 4.0226800e-01 1.2368600e-01
9.2255222e-01 3.8125656e-01 1.1607111e-01
8.9788256e-01 3.6001656e-01 1.1063311e-01
8.7650000e-01 3.3854800e-01 1.0737200e-01
8.5840456e-01 3.1685089e-01 1.0628778e-01
8.4359622e-01 2.9492522e-01 1.0738044e-01
8.3207500e-01 2.7277100e-01 1.1065000e-01
8.3207500e-01 2.7277100e-01 1.1065000e-01
8.1777844e-01 2.5191033e-01 1.1115589e-01
8.0318811e-01 2.3163933e-01 1.1082589e-01
7.8830400e-01 2.1195800e-01 1.0966000e-01
7.7312611e-01 1.9286633e-01 1.0765822e-01
7.5765444e-01 1.7436433e-01 1.0482056e-01
7.4188900e-01 1.5645200e-01 1.0114700e-01
7.4188900e-01 1.5645200e-01 1.0114700e-01
7.2797267e-01 1.3852769e-01 1.0026072e-01
7.1315067e-01 1.2091902e-01 9.8593989e-02
6.9742300e-01 1.0362600e-01 9.6146800e-02
6.8078967e-01 8.6648622e-02 9.2919156e-02
6.6325067e-01 6.9986889e-02 8.8911056e-02
6.4480600e-01 5.3640800e-02 8.4122500e-02
6.4480600e-01 5.3640800e-02 8.4122500e-02
6.2452389e-01 3.8360833e-02 7.6926033e-02
6.0214556e-01 2.4106567e-02 6.9029533e-02
5.7767100e-01 1.0878000e-02 6.0433000e-02
5.5110022e-01 -1.3248667e-03 5.1136433e-02
5.2243322e-01 -1.2502033e-02 4.1139833e-02
4.9167000e-01 -2.2653500e-02 3.0443200e-02
4.9167000e-01 -2.2653500e-02 3.0443200e-02
4.5571489e-01 -3.1136456e-02 2.0009971e-02
4.1968156e-01 -3.7604822e-02 1.1124361e-02
3.8357000e-01 -4.2058600e-02 3.7863700e-03
3.4738022e-01 -4.4497789e-02 -2.0040022e-03
3.1111222e-01 -4.4922389e-02 -6.2467556e-03
2.7476600e-01 -4.3332400e-02 -8.9418900e-03
2.7476600e-01 -4.3332400e-02 -8.9418900e-03
2.4203578e-01 -3.8777538e-02 -1.1844428e-02
2.1132211e-01 -3.3742104e-02 -1.4051998e-02
1.8262500e-01 -2.8226100e-02 -1.5564600e-02
1.5594444e-01 -2.2229524e-02 -1.6382234e-02
1.3128044e-01 -1.5752378e-02 -1.6504901e-02
1.0863300e-01 -8.7946600e-03 -1.5932600e-02
1.0863300e-01 -8.7946600e-03 -1.5932600e-02
8.8466306e-02 -5.5248867e-03 -1.2627549e-02
6.9313239e-02 -2.7761593e-03 -9.1047822e-03
5.1173800e-02 -5.4847800e-04 -5.3643000e-03
3.4047989e-02 1.1581573e-03 -1.4061022e-03
1.7935806e-02 2.3437467e-03 2.7698111e-03
2.8372500e-03 3.0082900e-03 7.1634400e-03
1.3317300e+00 6.8885900e-01 -2.9495300e-02
1.3484900e+00 6.9240111e-01 -2.0488617e-02
1.3643333e+00 6.9373878e-01 -1.1871827e-02
1.3792600e+00 6.9287200e-01 -3.6449300e-03
1.3932700e+00 6.8980078e-01 4.1920733e-03
1.4063633e+00 6.8452511e-01 1.1639183e-02
1.4185400e+00 6.7704500e-01 1.8696400e-02
1.4185400e+00 6.7704500e-01 1.8696400e-02
1.4287489e+00 6.6251522e-01 2.2852289e-02
1.4380722e+00 6.4648889e-01 2.4821322e-02
1.4465100e+00 6.2896600e-01 2.4603500e-02
1.4540622e+00 6.0994656e-01 2.2198822e-02
1.4607289e+00 5.8943056e-01 1.7607289e-02
1.4665100e+00 5.6741800e-01 1.0828900e-02
1.4665100e+00 5.6741800e-01 1.0828900e-02
1.4718200e+00 5.4362744e-01 4.9351056e-03
1.4759700e+00 5.2296578e-01 -3.2887111e-04
1.4789600e+00 5.0543300e-01 -4.9630300e-03
1.4807900e+00 4.9102911e-01 -8.9673711e-03
1.4814600e+00 4.7975411e-01 -1.2341894e-02
1.4809700e+00 4.7160800e-01 -1.5086600e-02
1.4809700e+00 4.7160800e-01 -1.5086600e-02
1.4806111e+00 4.7272156e-01 -1.5396410e-02
1.4812578e+00 4.7419922e-01 -1.5131443e-02
1.4829100e+00 4.7604100e-01 -1.4291700e-02
1.4855678e+00 4.7824689e-01 -1.2877180e-02
1.4892311e+00 4.8081689e-01 -1.0887883e-02
1.4939000e+00 4.8375100e-01 -8.3238100e-03
1.2945200e+00 6.7403900e-01 2.4151700e-02
1.3037011e+00 6.7314533e-01 3.8706056e-02
1.3117678e+00 6.7054800e-01 5.1363422e-02
1.3187200e+00 6.6624700e-01 6.2123800e-02
1.3245578e+00 6.6024233e-01 7.0987189e-02
1.3292811e+00 6.5253400e-01 7.7953589e-02
1.3328900e+00 6.4312200e-01 8.3023000e-02
1.5462700e+00 1.9644400e-01 -5.5029200e-02
1.5318544e+00 1.7383177e-01 -5.3005833e-02
1.5169644e+00 1.5208977e-01 -5.0272200e-02
1.5016000e+00 1.3121800e-01 -4.6828300e-02
1.4857611e+00 1.1121647e-01 -4.2674133e-02
1.4694478e+00 9.2085167e-02 -3.7809700e-02
1.4526600e+00 7.3824100e-02 -3.2235000e-02
1.4526600e+00 7.3824100e-02 -3.2235000e-02
1.4435589e+00 6.3039967e-02 -3.0146552e-02
1.4329222e+00 5.3336200e-02 -2.6474519e-02
1.4207500e+00 4.4712800e-02 -2.1218900e-02
1.4070422e+00 3.7169767e-02 -1.4379696e-02
1.3917989e+00 3.0707100e-02 -5.9569056e-03
1.3750200e+00 2.5324800e-02 4.0494700e-03
1.3750200e+00 2.5324800e-02 4.0494700e-03
1.3559378e+00 1.8796953e-02 1.2979483e-02
1.3363278e+00 1.2997747e-02 2.1044260e-02
1.3161900e+00 7.9271800e-03 2.8243800e-02
1.2955244e+00 3.5852533e-03 3.4578103e-02
1.2743311e+00 -2.8033333e-05 4.0047170e-02
1.2526100e+00 -2.9126800e-03 4.4651000e-02
1.2526100e+00 -2.9126800e-03 4.4651000e-02
1.2233356e+00 -5.7881444e-03 4.8143522e-02
1.1935256e+00 -8.1417644e-03 5.0168756e-02
1.1631800e+00 -9.9735400e-03 5.0726700e-02
1.1322989e+00 -1.1283471e-02 4.9817356e-02
1.1008822e+00 -1.2071558e-02 4.7440722e-02
1.0689300e+00 -1.2337800e-02 4.3596800e-02
1.0689300e+00 -1.2337800e-02 4.3596800e-02
1.0421210e+00 -1.0574239e-02 4.0622289e-02
1.0157790e+00 -8.2226656e-03 3.7334822e-02
9.8990400e-01 -5.2830800e-03 3.3734400e-02
9.6449600e-01 -1.7554822e-03 2.9821022e-02
9.3955500e-01 2.3601278e-03 2.5594689e-02
9.1508100e-01 7.0637500e-03 2.1055400e-02
9.1508100e-01 7.0637500e-03 2.1055400e-02
8.9025356e-01 1.0794161e-02 1.5413333e-02
8.6518956e-01 1.4881411e-02 9.7520333e-03
8.3988900e-01 1.9325500e-02 4.0715000e-03
8.1435189e-01 2.4126428e-02 -1.6282667e-03
7.8857822e-01 2.9284194e-02 -7.3472667e-03
7.6256800e-01 3.4798800e-02 -1.3085500e-02
7.6256800e-01 3.4798800e-02 -1.3085500e-02
7.3872522e-01 3.9252833e-02 -1.8444733e-02
7.1311756e-01 4.4523200e-02 -2.3017600e-02
6.8574500e-01 5.0609900e-02 -2.6804100e-02
6.5660756e-01 5.7512933e-02 -2.9804233e-02
6.2570522e-01 6.5232300e-02 -3.2018000e-02
5.9303800e-01 7.3768000e-02 -3.3445400e-02
5.9303800e-01 7.3768000e-02 -3.3445400e-02
5.5527167e-01 8.4773333e-02 -3.2918944e-02
5.1854833e-01 9.3666333e-02 -3.1897044e-02
4.8286800e-01 1.0044700e-01 -3.0379700e-02
4.4823067e-01 1.0511533e-01 -2.8366911e-02
4.1463633e-01 1.0767133e-01 -2.5858678e-02
3.8208500e-01 1.0811500e-01 -2.2855000e-02
3.8208500e-01 1.0811500e-01 -2.2855000e-02
3.4708556e-01 1.0612723e-01 -1.9574503e-02
3.1417889e-01 1.0285573e-01 -1.6256603e-02
2.8336500e-01 9.8300500e-02 -1.2901300e-02
2.5464389e-01 9.2461533e-02 -9.5085933e-03
2.2801556e-01 8.5338833e-02 -6.0784833e-03
2.0348000e-01 7.6932400e-02 -2.6109700e-03
2.0348000e-01 7.6932400e-02 -2.6109700e-03
1.7933081e-01 6.8672400e-02 2.7473500e-03
1.5634414e-01 6.0371100e-02 7.7029067e-03
1.3452000e-01 5.2028500e-02 1.2255700e-02
1.1385838e-01 4.3644600e-02 1.6405730e-02
9.4359278e-02 3.5219400e-02 2.0152997e-02
7.6022700e-02 2.6752900e-02 2.3497500e-02
7.6022700e-02 2.6752900e-02 2.3497500e-02
6.6387811e-02 2.2916703e-02 1.9859831e-02
5.6344444e-02 1.8197370e-02 1.6174631e-02
4.5892600e-02 1.2594900e-02 1.2441900e-02
3.5032278e-02 6.1092933e-03 8.6616380e-03
2.3763478e-02 -1.2594500e-03 4.8338450e-03
1.2086200e-02 -9.5113300e-03 9.5852100e-04
4.8767600e+00 3.3295500e-01 1.0365700e-01
4.8678944e+00 3.0616933e-01 1.1182156e-01
4.8583478e+00 2.8034167e-01 1.1979089e-01
4.8481200e+00 2.5547200e-01 1.2756500e-01
4.8372111e+00 2.3156033e-01 1.3514389e-01
4.8256211e+00 2.0860667e-01 1.4252756e-01
4.8133500e+00 1.8661100e-01 1.4971600e-01
4.8133500e+00 1.8661100e-01 1.4971600e-01
4.8024311e+00 1.7170533e-01 1.5475256e-01
4.7911611e+00 1.6076200e-01 1.5937956e-01
4.7795400e+00 1.5378100e-01 1.6359700e-01
4.7675678e+00 1.5076233e-01 1.6740489e-01
4.7552444e+00 1.5170600e-01 1.7080322e-01
4.7425700e+00 1.5661200e-01 1.7379200e-01
4.7425700e+00 1.5661200e-01 1.7379200e-01
4.7300089e+00 1.6091567e-01 1.7607578e-01
4.7161289e+00 1.6576600e-01 1.7851811e-01
4.7009300e+00 1.7116300e-01 1.8111900e-01
4.6844122e+00 1.7710667e-01 1.8387844e-01
4.6665756e+00 1.8359700e-01 1.8679644e-01
4.6474200e+00 1.9063400e-01 1.8987300e-01
4.6474200e+00 1.9063400e-01 1.8987300e-01
4.6216478e+00 1.9878944e-01 1.9547378e-01
4.5970644e+00 2.0294944e-01 2.0089678e-01
4.5736700e+00 2.0311400e-01 2.0614200e-01
4.5514644e+00 1.9928311e-01 2.1120944e-01
4.5304478e+00 1.9145678e-01 2.1609911e-01
4.5106200e+00 1.7963500e-01 2.2081100e-01
4.5106200e+00 1.7963500e-01 2.2081100e-01
4.4949433e+00 1.6591264e-01 2.2192311e-01
4.4801000e+00 1.5174498e-01 2.2125544e-01
4.4660900e+00 1.3713200e-01 2.1880800e-01
4.4529133e+00 1.2207371e-01 2.1458078e-01
4.4405700e+00 1.0657011e-01 2.0857378e-01
4.4290600e+00 9.0621200e-02 2.0078700e-01
4.4290600e+00 9.0621200e-02 2.0078700e-01
4.4093833e+00 1.0563789e-01 2.0236856e-01
4.3879933e+00 1.1985749e-01 2.0292922e-01
4.3648900e+00 1.3328000e-01 2.0246900e-01
4.3400733e+00 1.4590542e-01 2.0098789e-01
4.3135433e+00 1.5773376e-01 1.9848589e-01
4.2853000e+00 1.6876500e-01 1.9496300e-01
4.2853000e+00 1.6876500e-01 1.9496300e-01
4.2579644e+00 1.7582822e-01 1.8691900e-01
4.2324911e+00 1.7960156e-01 1.7796767e-01
4.2088800e+00 1.8008500e-01 1.6810900e-01
4.1871311e+00 1.7727856e-01 1.5734300e-01
4.1672444e+00 1.7118222e-01 1.4566967e-01
4.1492200e+00 1.6179600e-01 1.3308900e-01
4.1492200e+00 1.6179600e-01 1.3308900e-01
4.1336611e+00 1.4888682e-01 1.2522649e-01
4.1167011e+00 1.3558916e-01 1.1671116e-01
4.0983400e+00 1.2190300e-01 1.0754300e-01
4.0785778e+00 1.0782836e-01 9.7722022e-02
4.0574144e+00 9.3365222e-02 8.7248222e-02
4.0348500e+00 7.8513600e-02 7.6121600e-02
4.0348500e+00 7.8513600e-02 7.6121600e-02
4.0069489e+00 6.4419367e-02 6.1833444e-02
3.9766956e+00 5.4044667e-02 4.8870878e-02
3.9440900e+00 4.7389500e-02 3.7233900e-02
3.9091322e+00 4.4453867e-02 2.6922511e-02
3.8718222e+00 4.5237767e-02 1.7936711e-02
3.8321600e+00 4.9741200e-02 1.0276500e-02
3.8321600e+00 4.9741200e-02 1.0276500e-02
3.7927733e+00 6.1751278e-02 7.2662900e-03
3.7570067e+00 7.3584978e-02 4.9793767e-03
3.7248600e+00 8.5242300e-02 3.4157600e-03
3.6963333e+00 9.6723244e-02 2.5754400e-03
3.6714267e+00 1.0802781e-01 2.4584167e-03
3.6501400e+00 1.1915600e-01 3.0646900e-03
3.7196800e+00 1.5754200e-01 -2.0709900e-02
3.7133178e+00 1.4698211e-01 -1.9358743e-02
3.7048644e+00 1.3808711e-01 -1.6963077e-02
3.6943200e+00 1.3085700e-01 -1.3522900e-02
3.6816844e+00 1.2529178e-01 -9.0382133e-03
3.6669578e+00 1.2139144e-01 -3.5090167e-03
3.6501400e+00 1.1915600e-01 3.0646900e-03
4.6433200e+00 3.6228100e-01 1.0552600e-01
4.6286756e+00 3.5138556e-01 9.5772200e-02
4.6139322e+00 3.4023889e-01 8.5432733e-02
4.5990900e+00 3.2884100e-01 7.4507600e-02
4.5841489e+00 3.1719189e-01 6.2996800e-02
4.5691089e+00 3.0529156e-01 5.0900333e-02
4.5539700e+00 2.9314000e-01 3.8218200e-02
4.5539700e+00 2.9314000e-01 3.8218200e-02
4.5393078e+00 2.7807911e-01 2.5420044e-02
4.5249978e+00 2.6391778e-01 1.5889498e-02
4.5110400e+00 2.5065600e-01 9.6265600e-03
4.4974344e+00 2.3829378e-01 6.6312311e-03
4.4841811e+00 2.2683111e-01 6.9035111e-03
4.4712800e+00 2.1626800e-01 1.0443400e-02
4.4712800e+00 2.1626800e-01 1.0443400e-02
4.4513744e+00 2.1195667e-01 2.6108556e-02
4.4300844e+00 2.0909433e-01 4.1941756e-02
4.4074100e+00 2.0768100e-01 5.7943000e-02
4.3833511e+00 2.0771667e-01 7.4112289e-02
4.3579078e+00 2.0920133e-01 9.0449622e-02
4.3310800e+00 2.1213500e-01 1.0695500e-01
4.3310800e+00 2.1213500e-01 1.0695500e-01
4.3053889e+00 2.1798667e-01 1.2490633e-01
4.2785422e+00 2.2245533e-01 1.4300767e-01
4.2505400e+00 2.2554100e-01 1.6125900e-01
4.2213822e+00 2.2724367e-01 1.7966033e-01
4.1910689e+00 2.2756333e-01 1.9821167e-01
4.1596000e+00 2.2650000e-01 2.1691300e-01
4.1596000e+00 2.2650000e-01 2.1691300e-01
4.1260389e+00 2.1035922e-01 2.1301996e-01
4.0899189e+00 1.9674989e-01 2.0200462e-01
4.0512400e+00 1.8567200e-01 1.8386700e-01
4.0100022e+00 1.7712556e-01 1.5860709e-01
3.9662056e+00 1.7111056e-01 1.2622489e-01
3.9198500e+00 1.6762700e-01 8.6720400e-02
3.9198500e+00 1.6762700e-01 8.6720400e-02
3.8783411e+00 1.6803867e-01 5.7514211e-02
3.8400911e+00 1.6761333e-01 3.2828478e-02
3.8051000e+00 1.6635100e-01 1.2663200e-02
3.7733678e+00 1.6425167e-01 -2.9816222e-03
3.7448944e+00 1.6131533e-01 -1.4105989e-02
3.7196800e+00 1.5754200e-01 -2.0709900e-02
2.7218700e+00 2.7490800e-01 -3.1317600e-02
2.7490233e+00 2.5296778e-01 -2.6736456e-02
2.7810633e+00 2.3221444e-01 -2.4414522e-02
2.8179900e+00 2.1264800e-01 -2.4351800e-02
2.8598033e+00 1.9426844e-01 -2.6548289e-02
2.9065033e+00 1.7707578e-01 -3.1003989e-02
2.9580900e+00 1.6107000e-01 -3.7718900e-02
2.9580900e+00 1.6107000e-01 -3.7718900e-02
3.0095833e+00 1.6061722e-01 -3.8205800e-02
3.0598633e+00 1.6450622e-01 -3.7173500e-02
3.1089300e+00 1.7273700e-01 -3.4622000e-02
3.1567833e+00 1.8530956e-01 -3.0551300e-02
3.2034233e+00 2.0222389e-01 -2.4961400e-02
3.2488500e+00 2.2348000e-01 -1.7852300e-02
3.2488500e+00 2.2348000e-01 -1.7852300e-02
3.2907544e+00 2.4455144e-01 -1.4048898e-02
3.3333778e+00 2.6112844e-01 -1.0695308e-02
3.3767200e+00 2.7321100e-01 -7.7915300e-03
3.4207811e+00 2.8079911e-01 -5.3375644e-03
3.4655611e+00 2.8389278e-01 -3.3334111e-03
3.5110600e+00 2.8249200e-01 -1.7790700e-03
3.5110600e+00 2.8249200e-01 -1.7790700e-03
3.5558522e+00 2.6526644e-01 -3.1853333e-03
3.5966356e+00 2.4660111e-01 -5.2911467e-03
3.6334100e+00 2.2649600e-01 -8.0965100e-03
3.6661756e+00 2.0495111e-01 -1.1601423e-02
3.6949322e+00 1.8196644e-01 -1.5805887e-02
3.7196800e+00 1.5754200e-01 -2.0709900e-02
2.2545400e+00 8.0971600e-01 -2.1938800e-02