# vtk DataFile Version 2.0
test
ASCII
DATASET POLYDATA
POINTS 4361 float
4.7151522e+00 6.9221065e+00 1.1859017e+01
4.8246367e+00 6.9829759e+00 1.1732523e+01
4.9361310e+00 7.0430764e+00 1.1607541e+01
5.0496350e+00 7.1024081e+00 1.1484073e+01
5.1651489e+00 7.1609708e+00 1.1362118e+01
5.2826725e+00 7.2187645e+00 1.1241676e+01
5.4022058e+00 7.2757894e+00 1.1122747e+01
5.4022058e+00 7.2757894e+00 1.1122747e+01
5.5256779e+00 7.3378335e+00 1.1007729e+01
5.6554981e+00 7.3984255e+00 1.0901334e+01
5.7916665e+00 7.4575655e+00 1.0803560e+01
5.9341830e+00 7.5152535e+00 1.0714407e+01
6.0830477e+00 7.5714893e+00 1.0633876e+01
6.2382606e+00 7.6262731e+00 1.0561967e+01
6.2382606e+00 7.6262731e+00 1.0561967e+01
6.4038791e+00 7.6761336e+00 1.0511284e+01
6.5715896e+00 7.7232962e+00 1.0474636e+01
6.7413920e+00 7.7677610e+00 1.0452025e+01
6.9132864e+00 7.8095280e+00 1.0443450e+01
7.0872727e+00 7.8485971e+00 1.0448911e+01
7.2633511e+00 7.8849684e+00 1.0468408e+01
7.2633511e+00 7.8849684e+00 1.0468408e+01
7.4376745e+00 7.9170348e+00 1.0491736e+01
7.6117022e+00 7.9466960e+00 1.0518845e+01
7.7854342e+00 7.9739522e+00 1.0549735e+01
7.9588704e+00 7.9988033e+00 1.0584406e+01
8.1320109e+00 8.0212492e+00 1.0622859e+01
8.3048556e+00 8.0412901e+00 1.0665092e+01
8.3048556e+00 8.0412901e+00 1.0665092e+01
8.4776954e+00 8.0592140e+00 1.0708234e+01
8.6514430e+00 8.0749000e+00 1.0747398e+01
8.8260982e+00 8.0883481e+00 1.0782584e+01
9.0016612e+00 8.0995583e+00 1.0813793e+01
9.1781319e+00 8.1085307e+00 1.0841023e+01
9.3555103e+00 8.1152652e+00 1.0864276e+01
9.3555103e+00 8.1152652e+00 1.0864276e+01
9.5356582e+00 8.1190608e+00 1.0878705e+01
9.7141145e+00 8.1206151e+00 1.0879177e+01
9.8908794e+00 8.1199282e+00 1.0865691e+01
1.0065953e+01 8.1170001e+00 1.0838248e+01
1.0239335e+01 8.1118307e+00 1.0796847e+01
1.0411025e+01 8.1044201e+00 1.0741490e+01
1.0411025e+01 8.1044201e+00 1.0741490e+01
1.0575502e+01 8.0945339e+00 1.0667911e+01
1.0731773e+01 8.0845910e+00 1.0582720e+01
1.0879837e+01 8.0745915e+00 1.0485917e+01
1.1019694e+01 8.0645354e+00 1.0377501e+01
1.1151344e+01 8.0544227e+00 1.0257473e+01
1.1274788e+01 8.0442533e+00 1.0125832e+01
1.1274788e+01 8.0442533e+00 1.0125832e+01
1.1386240e+01 8.0467598e+00 9.9859376e+00
1.1495966e+01 8.0474376e+00 9.8447228e+00
1.1603964e+01 8.0462868e+00 9.7021873e+00
1.1710235e+01 8.0433073e+00 9.5583312e+00
1.1814779e+01 8.0384992e+00 9.4131544e+00
1.1917596e+01 8.0318624e+00 9.2666570e+00
1.1917596e+01 8.0318624e+00 9.2666570e+00
1.1814930e+01 7.9617787e+00 9.1303195e+00
1.1712640e+01 7.8891459e+00 8.9951974e+00
1.1610728e+01 7.8139638e+00 8.8612907e+00
1.1509193e+01 7.7362326e+00 8.7285995e+00
1.1408034e+01 7.6559522e+00 8.5971237e+00
1.1307253e+01 7.5731226e+00 8.4668632e+00
1.1307253e+01 7.5731226e+00 8.4668632e+00
1.1207194e+01 7.5013483e+00 8.3294551e+00
1.1111146e+01 7.4285730e+00 8.1900972e+00
1.1019109e+01 7.3547967e+00 8.0487897e+00
1.0931082e+01 7.2800194e+00 7.9055326e+00
1.0847066e+01 7.2042412e+00 7.7603257e+00
1.0767060e+01 7.1274620e+00 7.6131693e+00
1.0767060e+01 7.1274620e+00 7.6131693e+00
1.0693967e+01 7.0502848e+00 7.4618752e+00
1.0629070e+01 6.9709363e+00 7.3090452e+00
1.0572369e+01 6.8894165e+00 7.1546793e+00
1.0523862e+01 6.8057252e+00 6.9987773e+00
1.0483552e+01 6.7198626e+00 6.8413395e+00
1.0451437e+01 6.6318287e+00 6.6823656e+00
1.0451437e+01 6.6318287e+00 6.6823656e+00
1.0431473e+01 6.5415259e+00 6.5228578e+00
1.0421877e+01 6.4497985e+00 6.3645126e+00
1.0422649e+01 6.3566466e+00 6.2073301e+00
1.0433789e+01 6.2620701e+00 6.0513103e+00
1.0455297e+01 6.1660690e+00 5.8964532e+00
1.0487173e+01 6.0686434e+00 5.7427587e+00
1.0487173e+01 6.0686434e+00 5.7427587e+00
1.0527482e+01 5.9704800e+00 5.5925319e+00
1.0573825e+01 5.8712788e+00 5.4454295e+00
1.0626200e+01 5.7710400e+00 5.3014516e+00
1.0684609e+01 5.6697633e+00 5.1605982e+00
1.0749050e+01 5.5674489e+00 5.0228692e+00
1.0819524e+01 5.4640967e+00 4.8882647e+00
1.0819524e+01 5.4640967e+00 4.8882647e+00
1.0892976e+01 5.3605519e+00 4.7560268e+00
1.0968011e+01 5.2560555e+00 4.6255292e+00
1.1044631e+01 5.1506078e+00 4.4967719e+00
1.1122834e+01 5.0442085e+00 4.3697550e+00
1.1202621e+01 4.9368578e+00 4.2444784e+00
1.1283992e+01 4.8285556e+00 4.1209420e+00
1.1283992e+01 4.8285556e+00 4.1209420e+00
1.1364530e+01 4.7180875e+00 3.9989604e+00
1.1442673e+01 4.6051270e+00 3.8777023e+00
1.1518418e+01 4.4896739e+00 3.7571676e+00
1.1591768e+01 4.3717283e+00 3.6373565e+00
1.1662721e+01 4.2512902e+00 3.5182689e+00
1.1731277e+01 4.1283596e+00 3.3999048e+00
1.1731277e+01 4.1283596e+00 3.3999048e+00
1.1795290e+01 4.0025389e+00 3.2814892e+00
1.1852376e+01 3.8741336e+00 3.1632271e+00
1.1902537e+01 3.7431436e+00 3.0451185e+00
1.1945771e+01 3.6095689e+00 2.9271635e+00
1.1982079e+01 3.4734096e+00 2.8093621e+00
1.2011461e+01 3.3346655e+00 2.6917142e+00
1.2011461e+01 3.3346655e+00 2.6917142e+00
1.2032786e+01 3.1922524e+00 2.5756762e+00
1.2044322e+01 3.0487543e+00 2.4612135e+00
1.2046068e+01 2.9041710e+00 2.3483260e+00
1.2038024e+01 2.7585026e+00 2.2370138e+00
1.2020191e+01 2.6117491e+00 2.1272767e+00
1.1992569e+01 2.4639105e+00 2.0191149e+00
1.1992569e+01 2.4639105e+00 2.0191149e+00
1.1953906e+01 2.3186937e+00 1.9111903e+00
1.1907846e+01 2.1746406e+00 1.8056240e+00
1.1854389e+01 2.0317512e+00 1.7024159e+00
1.1793534e+01 1.8900254e+00 1.6015662e+00
1.1725281e+01 1.7494632e+00 1.5030747e+00
1.1649632e+01 1.6100647e+00 1.4069416e+00
1.1649632e+01 1.6100647e+00 1.4069416e+00
1.1566280e+01 1.4730130e+00 1.3142980e+00
1.1479434e+01 1.3370657e+00 1.2236663e+00
1.1389093e+01 1.2022231e+00 1.1350466e+00
1.1295259e+01 1.0684851e+00 1.0484387e+00
1.1197929e+01 9.3585158e-01 9.6384280e-01
1.1097106e+01 8.0432267e-01 8.8125877e-01
1.1097106e+01 8.0432267e-01 8.8125877e-01
1.0996179e+01 6.7153804e-01 8.0020091e-01
1.0894611e+01 5.3897267e-01 7.1970431e-01
1.0792402e+01 4.0662656e-01 6.3976898e-01
1.0689552e+01 2.7449972e-01 5.6039490e-01
1.0586062e+01 1.4259213e-01 4.8158209e-01
1.0481930e+01 1.0903800e-02 4.0333054e-01
2.4820800e+00 5.8235721e+00 1.1724652e+01
2.4479564e+00 5.7810894e+00 1.1540872e+01
2.4144064e+00 5.7354242e+00 1.1357861e+01
2.3814298e+00 5.6865765e+00 1.1175620e+01
2.3490268e+00 5.6345463e+00 1.0994149e+01
2.3171972e+00 5.5793336e+00 1.0813449e+01
2.2859412e+00 5.5209383e+00 1.0633518e+01
2.2859412e+00 5.5209383e+00 1.0633518e+01
2.2630085e+00 5.4713471e+00 1.0449370e+01
2.2469796e+00 5.4196047e+00 1.0265721e+01
2.2378546e+00 5.3657111e+00 1.0082571e+01
2.2356334e+00 5.3096662e+00 9.8999186e+00
2.2403161e+00 5.2514702e+00 9.7177651e+00
2.2519026e+00 5.1911229e+00 9.5361102e+00
2.2519026e+00 5.1911229e+00 9.5361102e+00
2.2762914e+00 5.1256732e+00 9.3565730e+00
2.3106754e+00 5.0570492e+00 9.1815390e+00
2.3550546e+00 4.9852510e+00 9.0110080e+00
2.4094289e+00 4.9102784e+00 8.8449801e+00
2.4737985e+00 4.8321316e+00 8.6834552e+00
2.5481632e+00 4.7508105e+00 8.5264335e+00
2.5481632e+00 4.7508105e+00 8.5264335e+00
2.6367495e+00 4.6658069e+00 8.3785635e+00
2.7345583e+00 4.5793028e+00 8.2399158e+00
2.8415896e+00 4.4912983e+00 8.1104902e+00
2.9578433e+00 4.4017932e+00 7.9902867e+00
3.0833196e+00 4.3107877e+00 7.8793055e+00
3.2180183e+00 4.2182817e+00 7.7775464e+00
3.2180183e+00 4.2182817e+00 7.7775464e+00
3.3524074e+00 4.1260259e+00 7.6786346e+00
3.4876154e+00 4.0326848e+00 7.5820942e+00
3.6236422e+00 3.9382584e+00 7.4879255e+00
3.7604878e+00 3.8427467e+00 7.3961282e+00
3.8981523e+00 3.7461498e+00 7.3067024e+00
4.0366355e+00 3.6484676e+00 7.2196482e+00
4.0366355e+00 3.6484676e+00 7.2196482e+00
4.1763883e+00 3.5487472e+00 7.1363557e+00
4.3130869e+00 3.4464460e+00 7.0515659e+00
4.4467312e+00 3.3415641e+00 6.9652789e+00
4.5773214e+00 3.2341013e+00 6.8774946e+00
4.7048573e+00 3.1240577e+00 6.7882130e+00
4.8293389e+00 3.0114333e+00 6.6974342e+00
4.8293389e+00 3.0114333e+00 6.6974342e+00
4.9485746e+00 2.8958691e+00 6.6015009e+00
5.0583985e+00 2.7772283e+00 6.5005600e+00
5.1588108e+00 2.6555108e+00 6.3946117e+00
5.2498113e+00 2.5307167e+00 6.2836558e+00
5.3314001e+00 2.4028459e+00 6.1676924e+00
5.4035772e+00 2.2718985e+00 6.0467216e+00
5.4035772e+00 2.2718985e+00 6.0467216e+00
5.4583202e+00 2.1378321e+00 5.9192278e+00
5.5003670e+00 2.0041392e+00 5.7891108e+00
5.5297178e+00 1.8708197e+00 5.6563707e+00
5.5463725e+00 1.7378738e+00 5.5210075e+00
5.5503311e+00 1.6053014e+00 5.3830212e+00
5.5415936e+00 1.4731025e+00 5.2424118e+00
5.5415936e+00 1.4731025e+00 5.2424118e+00
5.5231414e+00 1.3451944e+00 5.0998989e+00
5.4984712e+00 1.2189443e+00 4.9573577e+00
5.4675830e+00 1.0943520e+00 4.8147883e+00
5.4304768e+00 9.7141766e-01 4.6721907e+00
5.3871526e+00 8.5014121e-01 4.5295648e+00
5.3376104e+00 7.3052266e-01 4.3869107e+00
5.3376104e+00 7.3052266e-01 4.3869107e+00
5.2860704e+00 6.0892519e-01 4.2473063e+00
5.2332211e+00 4.8745213e-01 4.1079687e+00
5.1790625e+00 3.6610349e-01 3.9688979e+00
5.1235946e+00 2.4487927e-01 3.8300940e+00
5.0668175e+00 1.2377946e-01 3.6915568e+00
5.0087311e+00 2.8040700e-03 3.5532866e+00
1.2629700e+00 5.6264774e+00 1.3892559e+01
1.3296752e+00 5.7328991e+00 1.3741706e+01
1.4088756e+00 5.8386454e+00 1.3600626e+01
1.5005711e+00 5.9437162e+00 1.3469317e+01
1.6047617e+00 6.0481116e+00 1.3347781e+01
1.7214474e+00 6.1518315e+00 1.3236016e+01
1.8506282e+00 6.2548759e+00 1.3134023e+01
1.8506282e+00 6.2548759e+00 1.3134023e+01
2.0122330e+00 6.3454078e+00 1.3073890e+01
2.1800836e+00 6.4257166e+00 1.3027753e+01
2.3541800e+00 6.4958024e+00 1.2995610e+01
2.5345222e+00 6.5556651e+00 1.2977462e+01
2.7211102e+00 6.6053048e+00 1.2973309e+01
2.9139440e+00 6.6447214e+00 1.2983152e+01
2.9139440e+00 6.6447214e+00 1.2983152e+01
3.1078813e+00 6.6776925e+00 1.2992873e+01
3.2980615e+00 6.7087780e+00 1.2984333e+01
3.4844848e+00 6.7379779e+00 1.2957530e+01
3.6671510e+00 6.7652922e+00 1.2912465e+01
3.8460602e+00 6.7907208e+00 1.2849138e+01
4.0212125e+00 6.8142638e+00 1.2767549e+01
4.0212125e+00 6.8142638e+00 1.2767549e+01
4.1666215e+00 6.8386591e+00 1.2640831e+01
4.3001296e+00 6.8604858e+00 1.2504232e+01
4.4217367e+00 6.8797439e+00 1.2357751e+01
4.5314428e+00 6.8964334e+00 1.2201388e+01
[...]
POINT_DATA 4361
VECTORS U float
1.4182500e+00 4.5925800e-01 -8.2402700e-03
1.4318989e+00 4.4863133e-01 -1.0408722e-03
1.4449222e+00 4.3691300e-01 5.3523511e-03
1.4573200e+00 4.2410300e-01 1.0939400e-02
1.4690922e+00 4.1020133e-01 1.5720274e-02
1.4802389e+00 3.9520800e-01 1.9694974e-02
1.4907600e+00 3.7912300e-01 2.2863500e-02
1.4907600e+00 3.7912300e-01 2.2863500e-02
1.4990422e+00 3.6685933e-01 2.5721500e-02
1.5064822e+00 3.5361133e-01 2.7075667e-02
1.5130800e+00 3.3937900e-01 2.6926000e-02
1.5188356e+00 3.2416233e-01 2.5272500e-02
1.5237489e+00 3.0796133e-01 2.2115167e-02
1.5278200e+00 2.9077600e-01 1.7454000e-02
1.5278200e+00 2.9077600e-01 1.7454000e-02
1.5337978e+00 2.7136789e-01 1.5472222e-02
1.5391211e+00 2.5312489e-01 1.4753756e-02
1.5437900e+00 2.3604700e-01 1.5298600e-02
1.5478044e+00 2.2013422e-01 1.7106756e-02
1.5511644e+00 2.0538656e-01 2.0178222e-02
1.5538700e+00 1.9180400e-01 2.4513000e-02
1.5538700e+00 1.9180400e-01 2.4513000e-02
1.5562444e+00 1.7852311e-01 2.4412522e-02
1.5582678e+00 1.6622911e-01 2.4417622e-02
1.5599400e+00 1.5492200e-01 2.4528300e-02
1.5612611e+00 1.4460178e-01 2.4744556e-02
1.5622311e+00 1.3526844e-01 2.5066389e-02
1.5628500e+00 1.2692200e-01 2.5493800e-02
1.5628500e+00 1.2692200e-01 2.5493800e-02
1.5630133e+00 1.1908152e-01 2.6989989e-02
1.5630833e+00 1.1175952e-01 2.8560456e-02
1.5630600e+00 1.0495600e-01 3.0205200e-02
1.5629433e+00 9.8670956e-02 3.1924222e-02
1.5627333e+00 9.2904389e-02 3.3717522e-02
1.5624300e+00 8.7656300e-02 3.5585100e-02
1.5624300e+00 8.7656300e-02 3.5585100e-02
1.5621900e+00 8.2326122e-02 3.7351289e-02
1.5618233e+00 7.7768522e-02 3.8354089e-02
1.5613300e+00 7.3983500e-02 3.8593500e-02
1.5607100e+00 7.0971056e-02 3.8069522e-02
1.5599633e+00 6.8731189e-02 3.6782156e-02
1.5590900e+00 6.7263900e-02 3.4731400e-02
1.5590900e+00 6.7263900e-02 3.4731400e-02
1.5584967e+00 6.6476200e-02 3.3364547e-02
1.5565267e+00 6.7260833e-02 3.0639047e-02
1.5531800e+00 6.9617800e-02 2.6554900e-02
1.5484567e+00 7.3547100e-02 2.1112107e-02
1.5423567e+00 7.9048733e-02 1.4310667e-02
1.5348800e+00 8.6122700e-02 6.1505800e-03
1.5348800e+00 8.6122700e-02 6.1505800e-03
1.5217211e+00 1.0630583e-01 -6.0874444e-03
1.5094744e+00 1.2495993e-01 -1.7328238e-02
1.4981400e+00 1.4208500e-01 -2.7571800e-02
1.4877178e+00 1.5768103e-01 -3.6818131e-02
1.4782078e+00 1.7174803e-01 -4.5067231e-02
1.4696100e+00 1.8428600e-01 -5.2319100e-02
1.4696100e+00 1.8428600e-01 -5.2319100e-02
1.4618056e+00 1.7785022e-01 -4.4416722e-02
1.4530356e+00 1.6937989e-01 -3.4689756e-02
1.4433000e+00 1.5887500e-01 -2.3138200e-02
1.4325989e+00 1.4633556e-01 -9.7620556e-03
1.4209322e+00 1.3176156e-01 5.4386778e-03
1.4083000e+00 1.1515300e-01 2.2464000e-02
1.4083000e+00 1.1515300e-01 2.2464000e-02
1.3938744e+00 1.1065067e-01 3.3677778e-02
1.3786911e+00 1.0670600e-01 4.4500744e-02
1.3627500e+00 1.0331900e-01 5.4932900e-02
1.3460511e+00 1.0048967e-01 6.4974244e-02
1.3285944e+00 9.8218000e-02 7.4624778e-02
1.3103800e+00 9.6504000e-02 8.3884500e-02
1.3103800e+00 9.6504000e-02 8.3884500e-02
1.2920044e+00 9.6677600e-02 9.1287944e-02
1.2725244e+00 9.6719933e-02 9.7904111e-02
1.2519400e+00 9.6631000e-02 1.0373300e-01
1.2302511e+00 9.6410800e-02 1.0877461e-01
1.2074578e+00 9.6059333e-02 1.1302894e-01
1.1835600e+00 9.5576600e-02 1.1649600e-01
1.1835600e+00 9.5576600e-02 1.1649600e-01
1.1594378e+00 9.4735456e-02 1.1868956e-01
1.1358044e+00 9.3447289e-02 1.1965889e-01
1.1126600e+00 9.1712100e-02 1.1940400e-01
1.0900044e+00 8.9529889e-02 1.1792489e-01
1.0678378e+00 8.6900656e-02 1.1522156e-01
1.0461600e+00 8.3824400e-02 1.1129400e-01
1.0461600e+00 8.3824400e-02 1.1129400e-01
1.0247719e+00 8.0113000e-02 1.0675677e-01
1.0040449e+00 7.5757033e-02 1.0216657e-01
9.8397900e-01 7.0756500e-02 9.7523400e-02
9.6457422e-01 6.5111400e-02 9.2827267e-02
9.4583056e-01 5.8821733e-02 8.8078167e-02
9.2774800e-01 5.1887500e-02 8.3276100e-02
9.2774800e-01 5.1887500e-02 8.3276100e-02
9.0977678e-01 4.5183111e-02 7.8030333e-02
8.9187544e-01 3.8535578e-02 7.2529067e-02
8.7404400e-01 3.1944900e-02 6.6772300e-02
8.5628244e-01 2.5411078e-02 6.0760033e-02
8.3859078e-01 1.8934111e-02 5.4492267e-02
8.2096900e-01 1.2514000e-02 4.7969000e-02
8.2096900e-01 1.2514000e-02 4.7969000e-02
8.0251867e-01 5.3745778e-03 4.1728144e-02
7.8319367e-01 -2.1534556e-03 3.5469344e-02
7.6299400e-01 -1.0070100e-02 2.9192600e-02
7.4191967e-01 -1.8375356e-02 2.2897911e-02
7.1997067e-01 -2.7069222e-02 1.6585278e-02
6.9714700e-01 -3.6151700e-02 1.0254700e-02
6.9714700e-01 -3.6151700e-02 1.0254700e-02
6.7265389e-01 -4.5291056e-02 3.8195111e-03
6.4661556e-01 -5.3828756e-02 -2.4329689e-03
6.1903200e-01 -6.1764800e-02 -8.5027400e-03
5.8990322e-01 -6.9099189e-02 -1.4389802e-02
5.5922922e-01 -7.5831922e-02 -2.0094156e-02
5.2701000e-01 -8.1963000e-02 -2.5615800e-02
5.2701000e-01 -8.1963000e-02 -2.5615800e-02
4.9488756e-01 -8.7729244e-02 -2.9088278e-02
4.6286356e-01 -9.2116511e-02 -3.1625611e-02
4.3093800e-01 -9.5124800e-02 -3.3227800e-02
3.9911089e-01 -9.6754111e-02 -3.3894844e-02
3.6738222e-01 -9.7004444e-02 -3.3626744e-02
3.3575200e-01 -9.5875800e-02 -3.2423500e-02
3.3575200e-01 -9.5875800e-02 -3.2423500e-02
3.0546344e-01 -9.1183167e-02 -3.2752456e-02
2.7708144e-01 -8.5835400e-02 -3.2818856e-02
2.5060600e-01 -7.9832500e-02 -3.2622700e-02
2.2603711e-01 -7.3174467e-02 -3.2163989e-02
2.0337478e-01 -6.5861300e-02 -3.1442722e-02
1.8261900e-01 -5.7893000e-02 -3.0458900e-02
1.8261900e-01 -5.7893000e-02 -3.0458900e-02
1.6123536e-01 -4.9568900e-02 -2.8525878e-02
1.4112636e-01 -4.1500867e-02 -2.6313944e-02
1.2229200e-01 -3.3688900e-02 -2.3823100e-02
1.0473229e-01 -2.6133000e-02 -2.1053344e-02
8.8447222e-02 -1.8833167e-02 -1.8004678e-02
7.3436800e-02 -1.1789400e-02 -1.4677100e-02
7.3436800e-02 -1.1789400e-02 -1.4677100e-02
6.0838367e-02 -7.1996111e-03 -1.1030029e-02
4.8941467e-02 -2.9328578e-03 -7.4065322e-03
3.7746100e-02 1.0108600e-03 -3.8066100e-03
2.7252267e-02 4.6315422e-03 -2.3026222e-04
1.7459967e-02 7.9291889e-03 3.3225111e-03
8.3692000e-03 1.0903800e-02 6.8517100e-03
1.2639600e+00 6.1206000e-01 8.0097200e-02
1.2524233e+00 6.0580856e-01 8.3837389e-02
1.2391600e+00 5.9696089e-01 8.8428156e-02
1.2241700e+00 5.8551700e-01 9.3869500e-02
1.2074533e+00 5.7147689e-01 1.0016142e-01
1.1890100e+00 5.5484056e-01 1.0730392e-01
1.1688400e+00 5.3560800e-01 1.1529700e-01
1.1688400e+00 5.3560800e-01 1.1529700e-01
1.1525011e+00 5.2638400e-01 1.1967689e-01
1.1351044e+00 5.1685733e-01 1.2350022e-01
1.1166500e+00 5.0702800e-01 1.2676700e-01
1.0971378e+00 4.9689600e-01 1.2947722e-01
1.0765678e+00 4.8646133e-01 1.3163089e-01
1.0549400e+00 4.7572400e-01 1.3322800e-01
1.0549400e+00 4.7572400e-01 1.3322800e-01
1.0333691e+00 4.6268444e-01 1.3449500e-01
1.0101581e+00 4.4866344e-01 1.3421767e-01
9.8530700e-01 4.3366100e-01 1.3239600e-01
9.5881578e-01 4.1767711e-01 1.2903000e-01
9.3068444e-01 4.0071178e-01 1.2411967e-01
9.0091300e-01 3.8276500e-01 1.1766500e-01
9.0091300e-01 3.8276500e-01 1.1766500e-01
8.7447000e-01 3.6269300e-01 1.1038511e-01
8.5113833e-01 3.4241900e-01 1.0518178e-01
8.3091800e-01 3.2194300e-01 1.0205500e-01
8.1380900e-01 3.0126500e-01 1.0100478e-01
7.9981133e-01 2.8038500e-01 1.0203111e-01
7.8892500e-01 2.5930300e-01 1.0513400e-01
7.8892500e-01 2.5930300e-01 1.0513400e-01
7.7540200e-01 2.3946222e-01 1.0559087e-01
7.6160733e-01 2.2018389e-01 1.0526653e-01
7.4754100e-01 2.0146800e-01 1.0416100e-01
7.3320300e-01 1.8331456e-01 1.0227427e-01
7.1859333e-01 1.6572356e-01 9.9606333e-02
7.0371200e-01 1.4869500e-01 9.6157200e-02
7.0371200e-01 1.4869500e-01 9.6157200e-02
6.9060578e-01 1.3167510e-01 9.5388989e-02
6.7665778e-01 1.1496923e-01 9.3877689e-02
6.6186800e-01 9.8577400e-02 9.1623300e-02
6.4623644e-01 8.2499600e-02 8.8625822e-02
6.2976311e-01 6.6735833e-02 8.4885256e-02
6.1244800e-01 5.1286100e-02 8.0401600e-02
6.1244800e-01 5.1286100e-02 8.0401600e-02
5.9343689e-01 3.6856700e-02 7.3642289e-02
5.7243856e-01 2.3369533e-02 6.6213422e-02
5.4945300e-01 1.0824600e-02 5.8115000e-02
5.2448022e-01 -7.7810000e-04 4.9347022e-02
4.9752022e-01 -1.1438567e-02 3.9909489e-02
4.6857300e-01 -2.1156800e-02 2.9802400e-02
4.6857300e-01 -2.1156800e-02 2.9802400e-02
4.3460922e-01 -2.9379067e-02 1.9890293e-02
4.0051089e-01 -3.5670600e-02 1.1422357e-02
3.6627800e-01 -4.0031400e-02 4.3985900e-03
3.3191056e-01 -4.2461467e-02 -1.1810067e-03
2.9740856e-01 -4.2960800e-02 -5.3164333e-03
2.6277200e-01 -4.1529400e-02 -8.0076900e-03
2.6277200e-01 -4.1529400e-02 -8.0076900e-03
2.3151444e-01 -3.7197078e-02 -1.0899106e-02
2.0216244e-01 -3.2399778e-02 -1.3109876e-02
1.7471600e-01 -2.7137500e-02 -1.4640000e-02
1.4917511e-01 -2.1410244e-02 -1.5489479e-02
1.2553978e-01 -1.5218011e-02 -1.5658312e-02
1.0381000e-01 -8.5608000e-03 -1.5146500e-02
1.0381000e-01 -8.5608000e-03 -1.5146500e-02
8.4492132e-02 -5.4209128e-03 -1.2012154e-02
6.6156166e-02 -2.7793224e-03 -8.6723744e-03
4.8802100e-02 -6.3602900e-04 -5.1271600e-03
3.2429936e-02 1.0089676e-03 -1.3765111e-03
1.7039672e-02 2.1556672e-03 2.5795722e-03
2.6313100e-03 2.8040700e-03 6.7410900e-03
1.2629700e+00 6.5677300e-01 -2.7223900e-02
1.2789778e+00 6.6012056e-01 -1.8689528e-02
1.2941178e+00 6.6135722e-01 -1.0526424e-02
1.3083900e+00 6.6048300e-01 -2.7345900e-03
1.3217944e+00 6.5749789e-01 4.6859756e-03
1.3343311e+00 6.5240189e-01 1.1735272e-02
1.3460000e+00 6.4519500e-01 1.8413300e-02
1.3460000e+00 6.4519500e-01 1.8413300e-02
1.3558111e+00 6.3126289e-01 2.2341178e-02
1.3647811e+00 6.1589622e-01 2.4184844e-02
1.3729100e+00 5.9909500e-01 2.3944300e-02
1.3801978e+00 5.8085922e-01 2.1619544e-02
1.3866444e+00 5.6118889e-01 1.7210578e-02
1.3922500e+00 5.4008400e-01 1.0717400e-02
1.3922500e+00 5.4008400e-01 1.0717400e-02
1.3974056e+00 5.1729300e-01 5.0706111e-03
1.4014356e+00 4.9747867e-01 1.4724444e-05
1.4043400e+00 4.8064100e-01 -4.4502600e-03
1.4061189e+00 4.6678000e-01 -8.3243422e-03
1.4067722e+00 4.5589567e-01 -1.1607522e-02
1.4063000e+00 4.4798800e-01 -1.4299800e-02
1.4063000e+00 4.4798800e-01 -1.4299800e-02
1.4058667e+00 4.4893133e-01 -1.4709248e-02
1.4064033e+00 4.5024867e-01 -1.4550948e-02
1.4079100e+00 4.5194000e-01 -1.3824900e-02
1.4103867e+00 4.5400533e-01 -1.2531104e-02
1.4138333e+00 4.5644467e-01 -1.0669561e-02
1.4182500e+00 4.5925800e-01 -8.2402700e-03
1.2269300e+00 6.4235200e-01 2.3869100e-02
1.2358044e+00 6.4140556e-01 3.7753311e-02
1.2435978e+00 6.3881822e-01 4.9832378e-02
1.2503100e+00 6.3459000e-01 6.0106300e-02
1.2559411e+00 6.2872089e-01 6.8575078e-02
1.2604911e+00 6.2121089e-01 7.5238711e-02
1.2639600e+00 6.1206000e-01 8.0097200e-02
1.4696100e+00 1.8428600e-01 -5.2319100e-02
1.4561522e+00 1.6304883e-01 -5.0386344e-02
1.4422622e+00 1.4264350e-01 -4.7797911e-02
1.4279400e+00 1.2307000e-01 -4.4553800e-02
1.4131856e+00 1.0432833e-01 -4.0654011e-02
1.3979989e+00 8.6418500e-02 -3.6098544e-02
1.3823800e+00 6.9340500e-02 -3.0887400e-02
1.3823800e+00 6.9340500e-02 -3.0887400e-02
1.3739256e+00 5.9261867e-02 -2.9008806e-02
1.3639922e+00 5.0174367e-02 -2.5613706e-02
1.3525800e+00 4.2078000e-02 -2.0702100e-02
1.3396889e+00 3.4972767e-02 -1.4273989e-02
1.3253189e+00 2.8858667e-02 -6.3293722e-03
1.3094700e+00 2.3735700e-02 3.1317500e-03
1.3094700e+00 2.3735700e-02 3.1317500e-03
1.2914944e+00 1.7524652e-02 1.1553728e-02
1.2730111e+00 1.2015296e-02 1.9174478e-02
1.2540200e+00 7.2076300e-03 2.5994000e-02
1.2345211e+00 3.1016556e-03 3.2012294e-02
1.2145144e+00 -3.0262778e-04 3.7229361e-02
1.1940000e+00 -3.0052200e-03 4.1645200e-02
1.1940000e+00 -3.0052200e-03 4.1645200e-02
1.1661711e+00 -5.7223778e-03 4.5083011e-02
1.1378078e+00 -7.9417778e-03 4.7126878e-02
1.1089100e+00 -9.6634200e-03 4.7776800e-02
1.0794778e+00 -1.0887304e-02 4.7032778e-02
1.0495111e+00 -1.1613431e-02 4.4894811e-02
1.0190100e+00 -1.1841800e-02 4.1362900e-02
1.0190100e+00 -1.1841800e-02 4.1362900e-02
9.9343067e-01 -1.0128080e-02 3.8619533e-02
9.6828067e-01 -7.8521567e-03 3.5570567e-02
9.4356000e-01 -5.0140300e-03 3.2216000e-02
9.1926867e-01 -1.6137000e-03 2.8555833e-02
8.9540667e-01 2.3488333e-03 2.4590067e-02
8.7197400e-01 6.8735700e-03 2.0318700e-02
8.7197400e-01 6.8735700e-03 2.0318700e-02
8.4820156e-01 1.0464372e-02 1.4991483e-02
8.2419589e-01 1.4399549e-02 9.6480733e-03
7.9995700e-01 1.8679100e-02 4.2884700e-03
7.7548489e-01 2.3303026e-02 -1.0873267e-03
7.5077956e-01 2.8271326e-02 -6.4793167e-03
7.2584100e-01 3.3584000e-02 -1.1887500e-02
7.2584100e-01 3.3584000e-02 -1.1887500e-02
7.0300233e-01 3.7880067e-02 -1.6943511e-02
6.7846467e-01 4.2942967e-02 -2.1246411e-02
6.5222800e-01 4.8772700e-02 -2.4796200e-02
6.2429233e-01 5.5369267e-02 -2.7592878e-02
5.9465767e-01 6.2732667e-02 -2.9636444e-02
5.6332400e-01 7.0862900e-02 -3.0926900e-02
5.6332400e-01 7.0862900e-02 -3.0926900e-02
5.2704300e-01 8.1353222e-02 -3.0295389e-02
4.9181467e-01 8.9812889e-02 -2.9204756e-02
4.5763900e-01 9.6241900e-02 -2.7655000e-02
4.2451600e-01 1.0064026e-01 -2.5646122e-02
3.9244567e-01 1.0300796e-01 -2.3178122e-02
3.6142800e-01 1.0334500e-01 -2.0251000e-02
3.6142800e-01 1.0334500e-01 -2.0251000e-02
3.2811567e-01 1.0132592e-01 -1.7083646e-02
2.9682300e-01 9.8090256e-02 -1.3928479e-02
2.6755000e-01 9.3638000e-02 -1.0785500e-02
2.4029667e-01 8.7969156e-02 -7.6547089e-03
2.1506300e-01 8.1083722e-02 -4.5361056e-03
1.9184900e-01 7.2981700e-02 -1.4296900e-03
1.9184900e-01 7.2981700e-02 -1.4296900e-03
1.6912039e-01 6.5044633e-02 3.3562389e-03
1.4748339e-01 5.7091433e-02 7.7877022e-03
1.2693800e-01 4.9122100e-02 1.1864700e-02
1.0748422e-01 4.1136633e-02 1.5587232e-02
8.9122056e-02 3.3135033e-02 1.8955299e-02
7.1851500e-02 2.5117300e-02 2.1968900e-02
7.1851500e-02 2.5117300e-02 2.1968900e-02
6.2709689e-02 2.1508468e-02 1.8534593e-02
5.3201589e-02 1.7069601e-02 1.5071893e-02
4.3327200e-02 1.1800700e-02 1.1580800e-02
3.3086522e-02 5.7017644e-03 8.0613133e-03
2.2479556e-02 -1.2272056e-03 4.5134333e-03
1.1506300e-02 -8.9862100e-03 9.3716000e-04
4.6408100e+00 3.1851700e-01 1.0015600e-01
4.6324989e+00 2.9304856e-01 1.0795433e-01
4.6235322e+00 2.6847756e-01 1.1556533e-01
4.6139100e+00 2.4480400e-01 1.2298900e-01
4.6036322e+00 2.2202789e-01 1.3022533e-01
4.5926989e+00 2.0014922e-01 1.3727433e-01
4.5811100e+00 1.7916800e-01 1.4413600e-01
4.5811100e+00 1.7916800e-01 1.4413600e-01
4.5708189e+00 1.6498189e-01 1.4889922e-01
4.5602122e+00 1.5457656e-01 1.5328156e-01
4.5492900e+00 1.4795200e-01 1.5728300e-01
4.5380522e+00 1.4510822e-01 1.6090356e-01
4.5264989e+00 1.4604522e-01 1.6414322e-01
4.5146300e+00 1.5076300e-01 1.6700200e-01
4.5146300e+00 1.5076300e-01 1.6700200e-01
4.5028244e+00 1.5491500e-01 1.6921889e-01
4.4897478e+00 1.5958367e-01 1.7159422e-01
4.4754000e+00 1.6476900e-01 1.7412800e-01
4.4597811e+00 1.7047100e-01 1.7682022e-01
4.4428911e+00 1.7668967e-01 1.7967089e-01
4.4247300e+00 1.8342500e-01 1.8268000e-01
4.4247300e+00 1.8342500e-01 1.8268000e-01
4.4003067e+00 1.9117889e-01 1.8809967e-01
4.3770200e+00 1.9514322e-01 1.9334667e-01
4.3548700e+00 1.9531800e-01 1.9842100e-01
4.3338567e+00 1.9170322e-01 2.0332267e-01
4.3139800e+00 1.8429889e-01 2.0805167e-01
4.2952400e+00 1.7310500e-01 2.1260800e-01
4.2952400e+00 1.7310500e-01 2.1260800e-01
4.2804356e+00 1.6013329e-01 2.1377644e-01
4.2664189e+00 1.4672596e-01 2.1324078e-01
4.2531900e+00 1.3288300e-01 2.1100100e-01
4.2407489e+00 1.1860442e-01 2.0705711e-01
4.2290956e+00 1.0389022e-01 2.0140911e-01
4.2182300e+00 8.8740400e-02 1.9405700e-01
4.2182300e+00 8.8740400e-02 1.9405700e-01
4.1993844e+00 1.0291089e-01 1.9555167e-01
4.1789111e+00 1.1632776e-01 1.9606167e-01
4.1568100e+00 1.2899100e-01 1.9558700e-01
4.1330811e+00 1.4090062e-01 1.9412767e-01
4.1077244e+00 1.5205662e-01 1.9168367e-01
4.0807400e+00 1.6245900e-01 1.8825500e-01
4.0807400e+00 1.6245900e-01 1.8825500e-01
4.0546767e+00 1.6906789e-01 1.8052289e-01
4.0304167e+00 1.7256022e-01 1.7194622e-01
4.0079600e+00 1.7293600e-01 1.6252500e-01
3.9873067e+00 1.7019522e-01 1.5225922e-01
3.9684567e+00 1.6433789e-01 1.4114889e-01
3.9514100e+00 1.5536400e-01 1.2919400e-01
3.9514100e+00 1.5536400e-01 1.2919400e-01
3.9367467e+00 1.4310089e-01 1.2176516e-01
3.9207533e+00 1.3045622e-01 1.1371082e-01
3.9034300e+00 1.1743000e-01 1.0503100e-01
3.8847767e+00 1.0402222e-01 9.5725689e-02
3.8647933e+00 9.0232889e-02 8.5794889e-02
3.8434800e+00 7.6062000e-02 7.5238600e-02
3.8434800e+00 7.6062000e-02 7.5238600e-02
3.8170844e+00 6.2550578e-02 6.1638122e-02
3.7884111e+00 5.2559778e-02 4.9285189e-02
3.7574600e+00 4.6089600e-02 3.8179800e-02
3.7242311e+00 4.3140044e-02 2.8321956e-02
3.6887244e+00 4.3711111e-02 1.9711656e-02
3.6509400e+00 4.7802800e-02 1.2348900e-02
3.6509400e+00 4.7802800e-02 1.2348900e-02
3.6133133e+00 5.9083889e-02 9.4089878e-03
3.5791500e+00 7.0208222e-02 7.1759011e-03
3.5484500e+00 8.1175800e-02 5.6496400e-03
3.5212133e+00 9.1986622e-02 4.8302044e-03
3.4974400e+00 1.0264069e-01 4.7175944e-03
3.4771300e+00 1.1313800e-01 5.3118100e-03
3.5430100e+00 1.4986200e-01 -1.7329400e-02
3.5370578e+00 1.3972689e-01 -1.6115923e-02
3.5290944e+00 1.3119756e-01 -1.3878423e-02
3.5191200e+00 1.2427400e-01 -1.0616900e-02
3.5071344e+00 1.1895622e-01 -6.3313533e-03
3.4931378e+00 1.1524422e-01 -1.0217833e-03
3.4771300e+00 1.1313800e-01 5.3118100e-03
4.4185600e+00 3.4678300e-01 1.0138100e-01
4.4046689e+00 3.3639067e-01 9.2085078e-02
4.3906989e+00 3.2576667e-01 8.2241778e-02
4.3766500e+00 3.1491100e-01 7.1851100e-02
4.3625222e+00 3.0382367e-01 6.0913044e-02
4.3483156e+00 2.9250467e-01 4.9427611e-02
4.3340300e+00 2.8095400e-01 3.7394800e-02
4.3340300e+00 2.8095400e-01 3.7394800e-02
4.3202389e+00 2.6668011e-01 2.5290111e-02
4.3067756e+00 2.5326911e-01 1.6281044e-02
4.2936400e+00 2.4072100e-01 1.0367600e-02
4.2808322e+00 2.2903578e-01 7.5497778e-03
4.2683522e+00 2.1821344e-01 7.8275778e-03
4.2562000e+00 2.0825400e-01 1.1201000e-02
4.2562000e+00 2.0825400e-01 1.1201000e-02
4.2373667e+00 2.0408711e-01 2.6074500e-02
4.2172067e+00 2.0129178e-01 4.1123067e-02
4.1957200e+00 1.9986800e-01 5.6346700e-02
4.1729067e+00 1.9981578e-01 7.1745400e-02
4.1487667e+00 2.0113511e-01 8.7319167e-02
4.1233000e+00 2.0382600e-01 1.0306800e-01
4.1233000e+00 2.0382600e-01 1.0306800e-01
4.0988911e+00 2.0939011e-01 1.2028522e-01
4.0733911e+00 2.1364911e-01 1.3767922e-01
4.0468000e+00 2.1660300e-01 1.5525000e-01
4.0191178e+00 2.1825178e-01 1.7299756e-01
3.9903444e+00 2.1859544e-01 1.9092189e-01
3.9604800e+00 2.1763400e-01 2.0902300e-01
3.9604800e+00 2.1763400e-01 2.0902300e-01
3.9288022e+00 2.0225833e-01 2.0558567e-01
3.8946856e+00 1.8921000e-01 1.9530567e-01
3.8581300e+00 1.7848900e-01 1.7818300e-01
3.8191356e+00 1.7009533e-01 1.5421767e-01
3.7777022e+00 1.6402900e-01 1.2340967e-01
3.7338300e+00 1.6029000e-01 8.5759000e-02
3.7338300e+00 1.6029000e-01 8.5759000e-02
3.6944378e+00 1.6042644e-01 5.7852156e-02
3.6580811e+00 1.5981311e-01 3.4235489e-02
3.6247600e+00 1.5845000e-01 1.4909000e-02
3.5944744e+00 1.5633711e-01 -1.2731111e-04
3.5672244e+00 1.5347444e-01 -1.0873444e-02
3.5430100e+00 1.4986200e-01 -1.7329400e-02
2.5911200e+00 2.5990300e-01 -2.8206200e-02
2.6171978e+00 2.3896000e-01 -2.3896878e-02
2.6479644e+00 2.1919467e-01 -2.1760478e-02
2.6834200e+00 2.0060700e-01 -2.1797000e-02
2.7235644e+00 1.8319700e-01 -2.4006444e-02
2.7683978e+00 1.6696467e-01 -2.8388811e-02
2.8179200e+00 1.5191000e-01 -3.4944100e-02
2.8179200e+00 1.5191000e-01 -3.4944100e-02
2.8670200e+00 1.5179022e-01 -3.5440511e-02
2.9148567e+00 1.5577056e-01 -3.4473744e-02
2.9614300e+00 1.6385100e-01 -3.2043800e-02
3.0067400e+00 1.7603156e-01 -2.8150678e-02
3.0507867e+00 1.9231222e-01 -2.2794378e-02
3.0935700e+00 2.1269300e-01 -1.5974900e-02
3.0935700e+00 2.1269300e-01 -1.5974900e-02
3.1330833e+00 2.3284744e-01 -1.2258937e-02
3.1733633e+00 2.4872878e-01 -8.9433041e-03
3.2144100e+00 2.6033700e-01 -6.0280000e-03
3.2562233e+00 2.6767211e-01 -3.5130251e-03
3.2988033e+00 2.7073411e-01 -1.3983794e-03
3.3421500e+00 2.6952300e-01 3.1593700e-04
3.3421500e+00 2.6952300e-01 3.1593700e-04
3.3851544e+00 2.5311922e-01 -8.4284056e-04
3.4243478e+00 2.3529956e-01 -2.7144629e-03
3.4597300e+00 2.1606400e-01 -5.2989300e-03
3.4913011e+00 1.9541256e-01 -8.5962419e-03
3.5190611e+00 1.7334522e-01 -1.2606399e-02
3.5430100e+00 1.4986200e-01 -1.7329400e-02
2.1436700e+00 7.7080800e-01 -2.0233700e-02