# vtk DataFile Version 2.0
test
ASCII
DATASET POLYDATA
POINTS 4361 float
5.9007422e+00 7.2994055e+00 1.1858407e+01
6.0171656e+00 7.3511599e+00 1.1735908e+01
6.1349832e+00 7.4013711e+00 1.1614163e+01
6.2541950e+00 7.4500391e+00 1.1493171e+01
6.3748011e+00 7.4971638e+00 1.1372933e+01
6.4968013e+00 7.5427452e+00 1.1253449e+01
6.6201958e+00 7.5867834e+00 1.1134719e+01
6.6201958e+00 7.5867834e+00 1.1134719e+01
6.7464623e+00 7.6397938e+00 1.1019768e+01
6.8784625e+00 7.6909232e+00 1.0912189e+01
7.0161965e+00 7.7401715e+00 1.0811982e+01
7.1596641e+00 7.7875388e+00 1.0719147e+01
7.3088655e+00 7.8330250e+00 1.0633684e+01
7.4638006e+00 7.8766301e+00 1.0555593e+01
7.4638006e+00 7.8766301e+00 1.0555593e+01
7.6315469e+00 7.9129082e+00 1.0501268e+01
7.8011474e+00 7.9473201e+00 1.0462939e+01
7.9726020e+00 7.9798660e+00 1.0440606e+01
8.1459108e+00 8.0105459e+00 1.0434269e+01
8.3210739e+00 8.0393597e+00 1.0443928e+01
8.4980911e+00 8.0663074e+00 1.0469583e+01
8.4980911e+00 8.0663074e+00 1.0469583e+01
8.6729779e+00 8.0892344e+00 1.0494826e+01
8.8474756e+00 8.1103510e+00 1.0523507e+01
9.0215842e+00 8.1296572e+00 1.0555626e+01
9.1953037e+00 8.1471529e+00 1.0591182e+01
9.3686342e+00 8.1628382e+00 1.0630175e+01
9.5415756e+00 8.1767131e+00 1.0672607e+01
9.5415756e+00 8.1767131e+00 1.0672607e+01
9.7142199e+00 8.1886945e+00 1.0717090e+01
9.8878074e+00 8.1988519e+00 1.0757139e+01
1.0062338e+01 8.2071851e+00 1.0792753e+01
1.0237812e+01 8.2136941e+00 1.0823932e+01
1.0414230e+01 8.2183791e+00 1.0850676e+01
1.0591590e+01 8.2212399e+00 1.0872986e+01
1.0591590e+01 8.2212399e+00 1.0872986e+01
1.0771606e+01 8.2212582e+00 1.0886752e+01
1.0949706e+01 8.2194925e+00 1.0885946e+01
1.1125889e+01 8.2159427e+00 1.0870568e+01
1.1300157e+01 8.2106089e+00 1.0840617e+01
1.1472509e+01 8.2034911e+00 1.0796094e+01
1.1642945e+01 8.1945892e+00 1.0736999e+01
1.1642945e+01 8.1945892e+00 1.0736999e+01
1.1805822e+01 8.1836555e+00 1.0659654e+01
1.1960090e+01 8.1746073e+00 1.0570725e+01
1.2105747e+01 8.1674447e+00 1.0470211e+01
1.2242794e+01 8.1621678e+00 1.0358113e+01
1.2371231e+01 8.1587764e+00 1.0234431e+01
1.2491058e+01 8.1572706e+00 1.0099165e+01
1.2491058e+01 8.1572706e+00 1.0099165e+01
1.2596520e+01 8.1797940e+00 9.9561560e+00
1.2701126e+01 8.1988730e+00 9.8120269e+00
1.2804874e+01 8.2145078e+00 9.6667773e+00
1.2907765e+01 8.2266983e+00 9.5204073e+00
1.3009799e+01 8.2354445e+00 9.3729167e+00
1.3110976e+01 8.2407464e+00 9.2243057e+00
1.3110976e+01 8.2407464e+00 9.2243057e+00
1.3002434e+01 8.1650912e+00 9.0927279e+00
1.2893738e+01 8.0854746e+00 8.9642541e+00
1.2784888e+01 8.0018968e+00 8.8388843e+00
1.2675884e+01 7.9143577e+00 8.7166186e+00
1.2566726e+01 7.8228573e+00 8.5974569e+00
1.2457413e+01 7.7273956e+00 8.4813991e+00
1.2457413e+01 7.7273956e+00 8.4813991e+00
1.2347030e+01 7.6518163e+00 8.3524979e+00
1.2240128e+01 7.5749246e+00 8.2218461e+00
1.2136709e+01 7.4967207e+00 8.0894438e+00
1.2036771e+01 7.4172044e+00 7.9552910e+00
1.1940315e+01 7.3363759e+00 7.8193876e+00
1.1847340e+01 7.2542350e+00 7.6817338e+00
1.1847340e+01 7.2542350e+00 7.6817338e+00
1.1760170e+01 7.1749792e+00 7.5379058e+00
1.1680426e+01 7.0934251e+00 7.3921143e+00
1.1608109e+01 7.0095725e+00 7.2443593e+00
1.1543218e+01 6.9234214e+00 7.0946406e+00
1.1485754e+01 6.8349720e+00 6.9429584e+00
1.1435717e+01 6.7442241e+00 6.7893126e+00
1.1435717e+01 6.7442241e+00 6.7893126e+00
1.1399463e+01 6.6509605e+00 6.6342842e+00
1.1372160e+01 6.5561627e+00 6.4792667e+00
1.1353809e+01 6.4598305e+00 6.3242601e+00
1.1344409e+01 6.3619640e+00 6.1692644e+00
1.1343960e+01 6.2625631e+00 6.0142796e+00
1.1352463e+01 6.1616280e+00 5.8593057e+00
1.1352463e+01 6.1616280e+00 5.8593057e+00
1.1369826e+01 6.0593733e+00 5.7066381e+00
1.1393842e+01 5.9554271e+00 5.5568773e+00
1.1424511e+01 5.8497895e+00 5.4100232e+00
1.1461833e+01 5.7424602e+00 5.2660759e+00
1.1505808e+01 5.6334395e+00 5.1250354e+00
1.1556436e+01 5.5227272e+00 4.9869016e+00
1.1556436e+01 5.5227272e+00 4.9869016e+00
1.1609484e+01 5.4111970e+00 4.8510508e+00
1.1664121e+01 5.2989271e+00 4.7165068e+00
1.1720347e+01 5.1859173e+00 4.5832696e+00
1.1778160e+01 5.0721676e+00 4.4513393e+00
1.1837562e+01 4.9576782e+00 4.3207158e+00
1.1898553e+01 4.8424490e+00 4.1913990e+00
1.1898553e+01 4.8424490e+00 4.1913990e+00
1.1958184e+01 4.7256029e+00 4.0632118e+00
1.2014608e+01 4.6059537e+00 3.9360660e+00
1.2067824e+01 4.4835016e+00 3.8099617e+00
1.2117834e+01 4.3582465e+00 3.6848989e+00
1.2164636e+01 4.2301883e+00 3.5608776e+00
1.2208230e+01 4.0993272e+00 3.4378978e+00
1.2208230e+01 4.0993272e+00 3.4378978e+00
1.2247055e+01 3.9655956e+00 3.3160268e+00
1.2278846e+01 3.8304990e+00 3.1944570e+00
1.2303605e+01 3.6940374e+00 3.0731884e+00
1.2321329e+01 3.5562108e+00 2.9522209e+00
1.2332020e+01 3.4170192e+00 2.8315546e+00
1.2335678e+01 3.2764625e+00 2.7111896e+00
1.2335678e+01 3.2764625e+00 2.7111896e+00
1.2331250e+01 3.1332552e+00 2.5929440e+00
1.2318206e+01 2.9897650e+00 2.4768098e+00
1.2296547e+01 2.8459918e+00 2.3627869e+00
1.2266272e+01 2.7019356e+00 2.2508755e+00
1.2227382e+01 2.5575964e+00 2.1410754e+00
1.2179877e+01 2.4129743e+00 2.0333867e+00
1.2179877e+01 2.4129743e+00 2.0333867e+00
1.2123974e+01 2.2722299e+00 1.9250169e+00
1.2062114e+01 2.1326376e+00 1.8189394e+00
1.1994296e+01 1.9941977e+00 1.7151541e+00
1.1920519e+01 1.8569099e+00 1.6136612e+00
1.1840786e+01 1.7207744e+00 1.5144605e+00
1.1755094e+01 1.5857911e+00 1.4175522e+00
1.1755094e+01 1.5857911e+00 1.4175522e+00
1.1660525e+01 1.4532394e+00 1.3252101e+00
1.1563118e+01 1.3216376e+00 1.2348710e+00
1.1462873e+01 1.1909857e+00 1.1465349e+00
1.1359791e+01 1.0612837e+00 1.0602017e+00
1.1253871e+01 9.3253153e-01 9.7587156e-01
1.1145113e+01 8.0472927e-01 8.9354436e-01
1.1145113e+01 8.0472927e-01 8.9354436e-01
1.1037518e+01 6.7408001e-01 8.1185091e-01
1.0929563e+01 5.4366923e-01 7.3074006e-01
1.0821247e+01 4.1349691e-01 6.5021182e-01
1.0712572e+01 2.8356307e-01 5.7026618e-01
1.0603536e+01 1.5386770e-01 4.9090315e-01
1.0494140e+01 2.4410800e-02 4.1212273e-01
3.5719700e+00 6.2869621e+00 1.1752336e+01
3.5292142e+00 6.2386568e+00 1.1572162e+01
3.4856608e+00 6.1851626e+00 1.1393950e+01
3.4413098e+00 6.1264795e+00 1.1217701e+01
3.3961612e+00 6.0626076e+00 1.1043413e+01
3.3502150e+00 5.9935469e+00 1.0871087e+01
3.3034712e+00 5.9192973e+00 1.0700724e+01
3.3034712e+00 5.9192973e+00 1.0700724e+01
3.2686540e+00 5.8613829e+00 1.0521466e+01
3.2398852e+00 5.8012882e+00 1.0342393e+01
3.2171646e+00 5.7390131e+00 1.0163506e+01
3.2004923e+00 5.6745577e+00 9.9848028e+00
3.1898683e+00 5.6079219e+00 9.8062850e+00
3.1852926e+00 5.5391059e+00 9.6279522e+00
3.1852926e+00 5.5391059e+00 9.6279522e+00
3.1908689e+00 5.4649454e+00 9.4510439e+00
3.2046473e+00 5.3872551e+00 9.2774258e+00
3.2266276e+00 5.3060350e+00 9.1070980e+00
3.2568098e+00 5.2212850e+00 8.9400603e+00
3.2951940e+00 5.1330051e+00 8.7763128e+00
3.3417802e+00 5.0411955e+00 8.6158555e+00
3.3417802e+00 5.0411955e+00 8.6158555e+00
3.4065306e+00 4.9431743e+00 8.4638375e+00
3.4830944e+00 4.8430236e+00 8.3223238e+00
3.5714716e+00 4.7407433e+00 8.1913142e+00
3.6716621e+00 4.6363334e+00 8.0708087e+00
3.7836660e+00 4.5297938e+00 7.9608075e+00
3.9074833e+00 4.4211247e+00 7.8613104e+00
3.9074833e+00 4.4211247e+00 7.8613104e+00
4.0290677e+00 4.3134902e+00 7.7632007e+00
4.1509970e+00 4.2051468e+00 7.6664774e+00
4.2732712e+00 4.0960944e+00 7.5711405e+00
4.3958904e+00 3.9863330e+00 7.4771899e+00
4.5188545e+00 3.8758628e+00 7.3846258e+00
4.6421635e+00 3.7646836e+00 7.2934480e+00
4.6421635e+00 3.7646836e+00 7.2934480e+00
4.7672536e+00 3.6508621e+00 7.2068088e+00
4.8880702e+00 3.5344105e+00 7.1182140e+00
5.0046132e+00 3.4153287e+00 7.0276636e+00
5.1168827e+00 3.2936167e+00 6.9351575e+00
5.2248786e+00 3.1692745e+00 6.8406959e+00
5.3286009e+00 3.0423021e+00 6.7442786e+00
5.3286009e+00 3.0423021e+00 6.7442786e+00
5.4244700e+00 2.9130402e+00 6.6412153e+00
5.5095050e+00 2.7823836e+00 6.5328810e+00
5.5837058e+00 2.6503325e+00 6.4192759e+00
5.6470724e+00 2.5168867e+00 6.3003999e+00
5.6996049e+00 2.3820464e+00 6.1762530e+00
5.7413032e+00 2.2458115e+00 6.0468352e+00
5.7413032e+00 2.2458115e+00 6.0468352e+00
5.7647692e+00 2.1098761e+00 5.9122768e+00
5.7769900e+00 1.9752884e+00 5.7767020e+00
5.7779658e+00 1.8420483e+00 5.6401108e+00
5.7676965e+00 1.7101560e+00 5.5025031e+00
5.7461821e+00 1.5796113e+00 5.3638790e+00
5.7134226e+00 1.4504144e+00 5.2242385e+00
5.7134226e+00 1.4504144e+00 5.2242385e+00
5.6742694e+00 1.3254564e+00 5.0827231e+00
5.6305136e+00 1.2023306e+00 4.9412371e+00
5.5821550e+00 1.0810370e+00 4.7997802e+00
5.5291938e+00 9.6157570e-01 4.6583526e+00
5.4716299e+00 8.4394661e-01 4.5169542e+00
5.4094634e+00 7.2814976e-01 4.3755850e+00
5.4094634e+00 7.2814976e-01 4.3755850e+00
5.3457910e+00 6.0826292e-01 4.2385599e+00
5.2811346e+00 4.8824024e-01 4.1020024e+00
5.2154944e+00 3.6808171e-01 3.9659127e+00
5.1488702e+00 2.4778734e-01 3.8302907e+00
5.0812621e+00 1.2735712e-01 3.6951365e+00
5.0126700e+00 6.7910500e-03 3.5604500e+00
2.3506000e+00 6.0979444e+00 1.3848357e+01
2.4279852e+00 6.2074086e+00 1.3704845e+01
2.5171523e+00 6.3148815e+00 1.3570816e+01
2.6181011e+00 6.4203632e+00 1.3446269e+01
2.7308317e+00 6.5238537e+00 1.3331206e+01
2.8553441e+00 6.6253529e+00 1.3225626e+01
2.9916382e+00 6.7248609e+00 1.3129528e+01
2.9916382e+00 6.7248609e+00 1.3129528e+01
3.1585052e+00 6.8071123e+00 1.3072897e+01
3.3309358e+00 6.8784312e+00 1.3028783e+01
3.5089300e+00 6.9388174e+00 1.2997186e+01
3.6924877e+00 6.9882710e+00 1.2978105e+01
3.8816091e+00 7.0267920e+00 1.2971541e+01
4.0762940e+00 7.0543804e+00 1.2977493e+01
4.0762940e+00 7.0543804e+00 1.2977493e+01
4.2717080e+00 7.0742022e+00 1.2983896e+01
4.4630682e+00 7.0943184e+00 1.2972731e+01
4.6503748e+00 7.1147289e+00 1.2943995e+01
4.8336277e+00 7.1354338e+00 1.2897691e+01
5.0128269e+00 7.1564331e+00 1.2833818e+01
5.1879725e+00 7.1777268e+00 1.2752375e+01
5.1879725e+00 7.1777268e+00 1.2752375e+01
5.3354115e+00 7.2053876e+00 1.2628321e+01
5.4713929e+00 7.2300959e+00 1.2494291e+01
5.5959167e+00 7.2518519e+00 1.2350285e+01
5.7089828e+00 7.2706555e+00 1.2196302e+01
[...]
POINT_DATA 4361
VECTORS U float
2.6038400e+00 8.3655700e-01 -8.8501200e-03
2.6244278e+00 8.1681533e-01 2.3447444e-03
2.6437744e+00 7.9520767e-01 1.1974051e-02
2.6618800e+00 7.7173400e-01 2.0037800e-02
2.6787444e+00 7.4639433e-01 2.6535991e-02
2.6943678e+00 7.1918867e-01 3.1468624e-02
2.7087500e+00 6.9011700e-01 3.4835700e-02
2.7087500e+00 6.9011700e-01 3.4835700e-02
2.7198267e+00 6.6881967e-01 3.7760000e-02
2.7294467e+00 6.4610900e-01 3.7930867e-02
2.7376100e+00 6.2198500e-01 3.5348300e-02
2.7443167e+00 5.9644767e-01 3.0012300e-02
2.7495667e+00 5.6949700e-01 2.1922867e-02
2.7533600e+00 5.4113300e-01 1.1080000e-02
2.7533600e+00 5.4113300e-01 1.1080000e-02
2.7614656e+00 5.0814244e-01 5.4566722e-03
2.7686789e+00 4.7714878e-01 3.0565356e-03
2.7750000e+00 4.4815200e-01 3.8795900e-03
2.7804289e+00 4.2115211e-01 7.9258356e-03
2.7849656e+00 3.9614911e-01 1.5195272e-02
2.7886100e+00 3.7314300e-01 2.5687900e-02
2.7886100e+00 3.7314300e-01 2.5687900e-02
2.7915478e+00 3.5072278e-01 2.7502911e-02
2.7940411e+00 3.2988411e-01 2.9079944e-02
2.7960900e+00 3.1062700e-01 3.0419000e-02
2.7976944e+00 2.9295144e-01 3.1520078e-02
2.7988544e+00 2.7685744e-01 3.2383178e-02
2.7995700e+00 2.6234500e-01 3.3008300e-02
2.7995700e+00 2.6234500e-01 3.3008300e-02
2.7995378e+00 2.4856211e-01 3.5846189e-02
2.7994478e+00 2.3571144e-01 3.8301356e-02
2.7993000e+00 2.2379300e-01 4.0373800e-02
2.7990944e+00 2.1280678e-01 4.2063522e-02
2.7988311e+00 2.0275278e-01 4.3370522e-02
2.7985100e+00 1.9363100e-01 4.4294800e-02
2.7985100e+00 1.9363100e-01 4.4294800e-02
2.7981378e+00 1.8452356e-01 4.5398456e-02
2.7974144e+00 1.7664589e-01 4.5123689e-02
2.7963400e+00 1.6999800e-01 4.3470500e-02
2.7949144e+00 1.6457989e-01 4.0438889e-02
2.7931378e+00 1.6039156e-01 3.6028856e-02
2.7910100e+00 1.5743300e-01 3.0240400e-02
2.7910100e+00 1.5743300e-01 3.0240400e-02
2.7888167e+00 1.5559778e-01 2.5107189e-02
2.7848433e+00 1.5727711e-01 1.8643456e-02
2.7790900e+00 1.6247100e-01 1.0849200e-02
2.7715567e+00 1.7117944e-01 1.7244222e-03
2.7622433e+00 1.8340244e-01 -8.7308778e-03
2.7511500e+00 1.9914000e-01 -2.0516700e-02
2.7511500e+00 1.9914000e-01 -2.0516700e-02
2.7320011e+00 2.3934000e-01 -3.5869122e-02
2.7146344e+00 2.7639533e-01 -5.0024156e-02
2.6990500e+00 3.1030600e-01 -6.2981800e-02
2.6852478e+00 3.4107200e-01 -7.4742056e-02
2.6732278e+00 3.6869333e-01 -8.5304922e-02
2.6629900e+00 3.9317000e-01 -9.4670400e-02
2.6629900e+00 3.9317000e-01 -9.4670400e-02
2.6493100e+00 3.8116267e-01 -8.2008322e-02
2.6341333e+00 3.6570867e-01 -6.5633056e-02
2.6174600e+00 3.4680800e-01 -4.5544600e-02
2.5992900e+00 3.2446067e-01 -2.1742956e-02
2.5796233e+00 2.9866667e-01 5.7718778e-03
2.5584600e+00 2.6942600e-01 3.6999900e-02
2.5584600e+00 2.6942600e-01 3.6999900e-02
2.5337100e+00 2.6111867e-01 5.6720611e-02
2.5076733e+00 2.5305767e-01 7.6249644e-02
2.4803500e+00 2.4524300e-01 9.5587000e-02
2.4517400e+00 2.3767467e-01 1.1473268e-01
2.4218433e+00 2.3035267e-01 1.3368668e-01
2.3906600e+00 2.2327700e-01 1.5244900e-01
2.3906600e+00 2.2327700e-01 1.5244900e-01
2.3582067e+00 2.2137200e-01 1.6731856e-01
2.3238800e+00 2.1920867e-01 1.8097322e-01
2.2876800e+00 2.1678700e-01 1.9341300e-01
2.2496067e+00 2.1410700e-01 2.0463789e-01
2.2096600e+00 2.1116867e-01 2.1464789e-01
2.1678400e+00 2.0797200e-01 2.2344300e-01
2.1678400e+00 2.0797200e-01 2.2344300e-01
2.1274278e+00 2.0417011e-01 2.3011600e-01
2.0860878e+00 1.9981144e-01 2.3441300e-01
2.0438200e+00 1.9489600e-01 2.3633400e-01
2.0006244e+00 1.8942378e-01 2.3587900e-01
1.9565011e+00 1.8339478e-01 2.3304800e-01
1.9114500e+00 1.7680900e-01 2.2784100e-01
1.9114500e+00 1.7680900e-01 2.2784100e-01
1.8671156e+00 1.6900633e-01 2.2086300e-01
1.8240622e+00 1.5990533e-01 2.1361433e-01
1.7822900e+00 1.4950600e-01 2.0609500e-01
1.7417989e+00 1.3780833e-01 1.9830500e-01
1.7025889e+00 1.2481233e-01 1.9024433e-01
1.6646600e+00 1.1051800e-01 1.8191300e-01
1.6646600e+00 1.1051800e-01 1.8191300e-01
1.6262856e+00 9.5828289e-02 1.7305433e-01
1.5879856e+00 8.1407089e-02 1.6350667e-01
1.5497600e+00 6.7254400e-02 1.5327000e-01
1.5116089e+00 5.3370222e-02 1.4234433e-01
1.4735322e+00 3.9754556e-02 1.3072967e-01
1.4355300e+00 2.6407400e-02 1.1842600e-01
1.4355300e+00 2.6407400e-02 1.1842600e-01
1.3961722e+00 1.2889900e-02 1.0597953e-01
1.3551289e+00 -1.3267000e-03 9.3833100e-02
1.3124000e+00 -1.6242400e-02 8.1986700e-02
1.2679856e+00 -3.1857200e-02 7.0440333e-02
1.2218856e+00 -4.8171100e-02 5.9194000e-02
1.1741000e+00 -6.5184100e-02 4.8247700e-02
1.1741000e+00 -6.5184100e-02 4.8247700e-02
1.1244192e+00 -8.2234389e-02 3.8357159e-02
1.0730859e+00 -9.7463356e-02 2.8796959e-02
1.0201000e+00 -1.1087100e-01 1.9567100e-02
9.6546156e-01 -1.2245732e-01 1.0667582e-02
9.0917056e-01 -1.3222232e-01 2.0984056e-03
8.5122700e-01 -1.4016600e-01 -6.1404300e-03
8.5122700e-01 -1.4016600e-01 -6.1404300e-03
7.9335111e-01 -1.4672644e-01 -1.1820550e-02
7.3674778e-01 -1.5110578e-01 -1.6029373e-02
6.8141700e-01 -1.5330400e-01 -1.8766900e-02
6.2735878e-01 -1.5332111e-01 -2.0033130e-02
5.7457311e-01 -1.5115711e-01 -1.9828063e-02
5.2306000e-01 -1.4681200e-01 -1.8151700e-02
5.2306000e-01 -1.4681200e-01 -1.8151700e-02
4.7553156e-01 -1.3764704e-01 -1.8925856e-02
4.3134922e-01 -1.2783838e-01 -1.9503456e-02
3.9051300e-01 -1.1738600e-01 -1.9884500e-02
3.5302289e-01 -1.0628991e-01 -2.0068989e-02
3.1887889e-01 -9.4550111e-02 -2.0056922e-02
2.8808100e-01 -8.2166600e-02 -1.9848300e-02
2.8808100e-01 -8.2166600e-02 -1.9848300e-02
2.5548011e-01 -6.9342411e-02 -1.7613777e-02
2.2481044e-01 -5.6928978e-02 -1.5109277e-02
1.9607200e-01 -4.4926300e-02 -1.2334800e-02
1.6926478e-01 -3.3334378e-02 -9.2903467e-03
1.4438878e-01 -2.2153211e-02 -5.9759167e-03
1.2144400e-01 -1.1382800e-02 -2.3915100e-03
1.2144400e-01 -1.1382800e-02 -2.3915100e-03
1.0217748e-01 -4.6576389e-03 6.1996667e-04
8.3893211e-02 1.7636978e-03 3.6292133e-03
6.6591200e-02 7.8812100e-03 6.6362300e-03
5.0271444e-02 1.3694898e-02 9.6410167e-03
3.4933944e-02 1.9204761e-02 1.2643573e-02
2.0578700e-02 2.4410800e-02 1.5643900e-02
2.3538500e+00 1.0754500e+00 1.0778100e-01
2.3336811e+00 1.0633759e+00 1.1512800e-01
2.3104144e+00 1.0466992e+00 1.2451767e-01
2.2840500e+00 1.0254200e+00 1.3595000e-01
2.2545878e+00 9.9953822e-01 1.4942500e-01
2.2220278e+00 9.6905389e-01 1.6494267e-01
2.1863700e+00 9.3396700e-01 1.8250300e-01
2.1863700e+00 9.3396700e-01 1.8250300e-01
2.1581467e+00 9.1641978e-01 1.9177278e-01
2.1280100e+00 8.9854078e-01 2.0017244e-01
2.0959600e+00 8.8033000e-01 2.0770200e-01
2.0619967e+00 8.6178744e-01 2.1436144e-01
2.0261200e+00 8.4291311e-01 2.2015078e-01
1.9883300e+00 8.2370700e-01 2.2507000e-01
1.9883300e+00 8.2370700e-01 2.2507000e-01
1.9479467e+00 8.0195667e-01 2.2896589e-01
1.9041300e+00 7.7886933e-01 2.3010456e-01
1.8568800e+00 7.5444500e-01 2.2848600e-01
1.8061967e+00 7.2868367e-01 2.2411022e-01
1.7520800e+00 7.0158533e-01 2.1697722e-01
1.6945300e+00 6.7315000e-01 2.0708700e-01
1.6945300e+00 6.7315000e-01 2.0708700e-01
1.6442511e+00 6.4006044e-01 1.9565911e-01
1.5996744e+00 6.0613978e-01 1.8758978e-01
1.5608000e+00 5.7138800e-01 1.8287900e-01
1.5276278e+00 5.3580511e-01 1.8152678e-01
1.5001578e+00 4.9939111e-01 1.8353311e-01
1.4783900e+00 4.6214600e-01 1.8889800e-01
1.4783900e+00 4.6214600e-01 1.8889800e-01
1.4520622e+00 4.2692656e-01 1.9015700e-01
1.4249889e+00 3.9264589e-01 1.8964967e-01
1.3971700e+00 3.5930400e-01 1.8737600e-01
1.3686056e+00 3.2690089e-01 1.8333600e-01
1.3392956e+00 2.9543656e-01 1.7752967e-01
1.3092400e+00 2.6491100e-01 1.6995700e-01
1.3092400e+00 2.6491100e-01 1.6995700e-01
1.2814711e+00 2.3379001e-01 1.6584211e-01
1.2516411e+00 2.0293368e-01 1.6052578e-01
1.2197500e+00 1.7234200e-01 1.5400800e-01
1.1857978e+00 1.4201498e-01 1.4628878e-01
1.1497844e+00 1.1195261e-01 1.3736811e-01
1.1117100e+00 8.2154900e-02 1.2724600e-01
1.1117100e+00 8.2154900e-02 1.2724600e-01
1.0693323e+00 5.4027744e-02 1.1335667e-01
1.0235450e+00 2.8524871e-02 9.8534400e-02
9.7434800e-01 5.6462800e-03 8.2779200e-02
9.2174133e-01 -1.4608029e-02 6.6091067e-02
8.6572500e-01 -3.2238056e-02 4.8470000e-02
8.0629900e-01 -4.7243800e-02 2.9916000e-02
8.0629900e-01 -4.7243800e-02 2.9916000e-02
7.4105822e-01 -5.7335056e-02 1.2939333e-02
6.7713389e-01 -6.4521389e-02 -9.8646667e-04
6.1452600e-01 -6.8802800e-02 -1.1861400e-02
5.5323456e-01 -7.0179289e-02 -1.9685467e-02
4.9325956e-01 -6.8650856e-02 -2.4458667e-02
4.3460100e-01 -6.4217500e-02 -2.6181000e-02
4.3460100e-01 -6.4217500e-02 -2.6181000e-02
3.8264244e-01 -5.6935144e-02 -2.8074811e-02
3.3420478e-01 -4.9013478e-02 -2.9230511e-02
2.8928800e-01 -4.0452500e-02 -2.9648100e-02
2.4789211e-01 -3.1252211e-02 -2.9327578e-02
2.1001711e-01 -2.1412611e-02 -2.8268944e-02
1.7566300e-01 -1.0933700e-02 -2.6472200e-02
1.7566300e-01 -1.0933700e-02 -2.6472200e-02
1.4421275e-01 -6.0831778e-03 -2.0758578e-02
1.1406975e-01 -1.9912144e-03 -1.4638624e-02
8.5234000e-02 1.3421900e-03 -8.1123400e-03
5.7705502e-02 3.9170356e-03 -1.1797244e-03
3.1484256e-02 5.7333222e-03 6.1592222e-03
6.5702600e-03 6.7910500e-03 1.3904500e-02
2.3506000e+00 1.1282400e+00 -7.1425800e-02
2.3772878e+00 1.1346300e+00 -5.5551022e-02
2.4023944e+00 1.1375933e+00 -4.0336556e-02
2.4259200e+00 1.1371300e+00 -2.5782400e-02
2.4478644e+00 1.1332400e+00 -1.1888556e-02
2.4682278e+00 1.1259233e+00 1.3449778e-03
2.4870100e+00 1.1151800e+00 1.3918200e-02
2.4870100e+00 1.1151800e+00 1.3918200e-02
2.5020833e+00 1.0929674e+00 2.1348119e-02
2.5156333e+00 1.0686108e+00 2.5215452e-02
2.5276600e+00 1.0421100e+00 2.5520200e-02
2.5381633e+00 1.0134651e+00 2.2262362e-02
2.5471433e+00 9.8267611e-01 1.5441939e-02
2.5546000e+00 9.4974300e-01 5.0589300e-03
2.5546000e+00 9.4974300e-01 5.0589300e-03
2.5612322e+00 9.1380267e-01 -3.9061944e-03
2.5664422e+00 8.8301900e-01 -1.1587438e-02
2.5702300e+00 8.5739200e-01 -1.7984800e-02
2.5725956e+00 8.3692167e-01 -2.3098281e-02
2.5735389e+00 8.2160800e-01 -2.6927881e-02
2.5730600e+00 8.1145100e-01 -2.9473600e-02
2.5730600e+00 8.1145100e-01 -2.9473600e-02
2.5746567e+00 8.1565978e-01 -2.7219376e-02
2.5776667e+00 8.1985878e-01 -2.4491942e-02
2.5820900e+00 8.2404800e-01 -2.1291300e-02
2.5879267e+00 8.2822744e-01 -1.7617449e-02
2.5951767e+00 8.3239711e-01 -1.3470389e-02
2.6038400e+00 8.3655700e-01 -8.8501200e-03
2.3021100e+00 1.1083200e+00 1.7954500e-02
2.3143556e+00 1.1089167e+00 4.0947389e-02
2.3251522e+00 1.1070833e+00 6.0731556e-02
2.3345000e+00 1.1028200e+00 7.7307000e-02
2.3423989e+00 1.0961267e+00 9.0673722e-02
2.3488489e+00 1.0870033e+00 1.0083172e-01
2.3538500e+00 1.0754500e+00 1.0778100e-01
2.6629900e+00 3.9317000e-01 -9.4670400e-02
2.6317300e+00 3.4984556e-01 -9.1259333e-02
2.5990767e+00 3.0783856e-01 -8.6185467e-02
2.5650300e+00 2.6714900e-01 -7.9448800e-02
2.5295900e+00 2.2777689e-01 -7.1049333e-02
2.4927567e+00 1.8972222e-01 -6.0987067e-02
2.4545300e+00 1.5298500e-01 -4.9262000e-02
2.4545300e+00 1.5298500e-01 -4.9262000e-02
2.4328033e+00 1.2999971e-01 -4.2755922e-02
2.4089600e+00 1.0961738e-01 -3.3963956e-02
2.3830000e+00 9.1838000e-02 -2.2886100e-02
2.3549233e+00 7.6661578e-02 -9.5223556e-03
2.3247300e+00 6.4088111e-02 6.1272778e-03
2.2924200e+00 5.4117600e-02 2.4062800e-02
2.2924200e+00 5.4117600e-02 2.4062800e-02
2.2549844e+00 4.2631669e-02 4.0454100e-02
2.2168644e+00 3.2290436e-02 5.4878567e-02
2.1780600e+00 2.3093900e-02 6.7336200e-02
2.1385711e+00 1.5042062e-02 7.7827000e-02
2.0983978e+00 8.1349222e-03 8.6350967e-02
2.0575400e+00 2.3724800e-03 9.2908100e-02
2.0575400e+00 2.3724800e-03 9.2908100e-02
2.0079767e+00 -2.7904333e-03 9.5909900e-02
1.9581467e+00 -7.1070600e-03 9.6483300e-02
1.9080500e+00 -1.0577400e-02 9.4628300e-02
1.8576867e+00 -1.3201453e-02 9.0344900e-02
1.8070567e+00 -1.4979220e-02 8.3633100e-02
1.7561600e+00 -1.5910700e-02 7.4492900e-02
1.7561600e+00 -1.5910700e-02 7.4492900e-02
1.7127567e+00 -1.3734839e-02 6.7530033e-02
1.6704267e+00 -1.0639449e-02 6.0231800e-02
1.6291700e+00 -6.6245300e-03 5.2598200e-02
1.5889867e+00 -1.6900822e-03 4.4629233e-02
1.5498767e+00 4.1638944e-03 3.6324900e-02
1.5118400e+00 1.0937400e-02 2.7685200e-02
1.5118400e+00 1.0937400e-02 2.7685200e-02
1.4734100e+00 1.6294667e-02 1.7413228e-02
1.4347333e+00 2.2169067e-02 7.0873578e-03
1.3958100e+00 2.8560600e-02 -3.2924100e-03
1.3566400e+00 3.5469267e-02 -1.3726076e-02
1.3172233e+00 4.2895067e-02 -2.4213639e-02
1.2775600e+00 5.0838000e-02 -3.4755100e-02
1.2775600e+00 5.0838000e-02 -3.4755100e-02
1.2405600e+00 5.7268500e-02 -4.4512278e-02
1.2012467e+00 6.5032800e-02 -5.3127644e-02
1.1596200e+00 7.4130900e-02 -6.0601200e-02
1.1156800e+00 8.4562800e-02 -6.6932944e-02
1.0694267e+00 9.6328500e-02 -7.2122878e-02
1.0208600e+00 1.0942800e-01 -7.6171000e-02
1.0208600e+00 1.0942800e-01 -7.6171000e-02
9.6612733e-01 1.2603467e-01 -7.8319333e-02
9.1176833e-01 1.3976433e-01 -7.9476800e-02
8.5778300e-01 1.5061700e-01 -7.9643400e-02
8.0417133e-01 1.5859267e-01 -7.8819133e-02
7.5093333e-01 1.6369133e-01 -7.7004000e-02
6.9806900e-01 1.6591300e-01 -7.4198000e-02
6.9806900e-01 1.6591300e-01 -7.4198000e-02
6.4063733e-01 1.6511078e-01 -7.0684511e-02
5.8585200e-01 1.6227611e-01 -6.5753144e-02
5.3371300e-01 1.5740900e-01 -5.9403900e-02
4.8422033e-01 1.5050944e-01 -5.1636778e-02
4.3737400e-01 1.4157744e-01 -4.2451778e-02
3.9317400e-01 1.3061300e-01 -3.1848900e-02
3.9317400e-01 1.3061300e-01 -3.1848900e-02
3.4620100e-01 1.2029548e-01 -1.3716844e-02
3.0143767e-01 1.0912438e-01 2.9978889e-03
2.5888400e-01 9.7099700e-02 1.8295300e-02
2.1854000e-01 8.4221444e-02 3.2175389e-02
1.8040567e-01 7.0489611e-02 4.4638156e-02
1.4448100e-01 5.5904200e-02 5.5683600e-02
1.4448100e-01 5.5904200e-02 5.5683600e-02
1.2678962e-01 4.7708400e-02 4.7565626e-02
1.0785082e-01 3.7854467e-02 3.8987093e-02
8.7664600e-02 2.6342400e-02 2.9948000e-02
6.6230956e-02 1.3172200e-02 2.0448348e-02
4.3549889e-02 -1.6561333e-03 1.0488136e-02
1.9621400e-02 -1.8142600e-02 6.7365600e-05
8.2072500e+00 5.2266700e-01 1.3701900e-01
8.1893178e+00 4.7760289e-01 1.5012711e-01
8.1703744e+00 4.3437789e-01 1.6292011e-01
8.1504200e+00 3.9299200e-01 1.7539800e-01
8.1294544e+00 3.5344522e-01 1.8756078e-01
8.1074778e+00 3.1573756e-01 1.9940844e-01
8.0844900e+00 2.7986900e-01 2.1094100e-01
8.0844900e+00 2.7986900e-01 2.1094100e-01
8.0636022e+00 2.5459133e-01 2.1993033e-01
8.0417089e+00 2.3585000e-01 2.2801767e-01
8.0188100e+00 2.2364500e-01 2.3520300e-01
7.9949056e+00 2.1797633e-01 2.4148633e-01
7.9699956e+00 2.1884400e-01 2.4686767e-01
7.9440800e+00 2.2624800e-01 2.5134700e-01
7.9440800e+00 2.2624800e-01 2.5134700e-01
7.9195011e+00 2.3232444e-01 2.5397944e-01
7.8930278e+00 2.3941178e-01 2.5671444e-01
7.8646600e+00 2.4751000e-01 2.5955200e-01
7.8343978e+00 2.5661911e-01 2.6249211e-01
7.8022411e+00 2.6673911e-01 2.6553478e-01
7.7681900e+00 2.7787000e-01 2.6868000e-01
7.7681900e+00 2.7787000e-01 2.6868000e-01
7.7222367e+00 2.9218567e-01 2.7579600e-01
7.6781600e+00 2.9941867e-01 2.8268400e-01
7.6359600e+00 2.9956900e-01 2.8934400e-01
7.5956367e+00 2.9263667e-01 2.9577600e-01
7.5571900e+00 2.7862167e-01 3.0198000e-01
7.5206200e+00 2.5752400e-01 3.0795600e-01
7.5206200e+00 2.5752400e-01 3.0795600e-01
7.4911789e+00 2.3251822e-01 3.0696233e-01
7.4632756e+00 2.0704122e-01 3.0328833e-01
7.4369100e+00 1.8109300e-01 2.9693400e-01
7.4120822e+00 1.5467356e-01 2.8789933e-01
7.3887922e+00 1.2778289e-01 2.7618433e-01
7.3670400e+00 1.0042100e-01 2.6178900e-01
7.3670400e+00 1.0042100e-01 2.6178900e-01
7.3372556e+00 1.2843767e-01 2.6463478e-01
7.3045156e+00 1.5499633e-01 2.6606811e-01
7.2688200e+00 1.8009700e-01 2.6608900e-01
7.2301689e+00 2.0373967e-01 2.6469744e-01
7.1885622e+00 2.2592433e-01 2.6189344e-01
7.1440000e+00 2.4665100e-01 2.5767700e-01
7.1440000e+00 2.4665100e-01 2.5767700e-01
7.0997578e+00 2.6109889e-01 2.4610900e-01
7.0577578e+00 2.6971956e-01 2.3256667e-01
7.0180000e+00 2.7251300e-01 2.1705000e-01
6.9804844e+00 2.6947922e-01 1.9955900e-01
6.9452111e+00 2.6061822e-01 1.8009367e-01
6.9121800e+00 2.4593000e-01 1.5865400e-01
6.9121800e+00 2.4593000e-01 1.5865400e-01
6.8819678e+00 2.2392489e-01 1.4393950e-01
6.8494311e+00 2.0158556e-01 1.2832817e-01
6.8145700e+00 1.7891200e-01 1.1182000e-01
6.7773844e+00 1.5590422e-01 9.4415000e-02
6.7378744e+00 1.3256222e-01 7.6113167e-02
6.6960400e+00 1.0888600e-01 5.6914500e-02
6.6960400e+00 1.0888600e-01 5.6914500e-02
6.6457744e+00 8.8040978e-02 3.3506294e-02
6.5926311e+00 7.3733611e-02 1.2617978e-02
6.5366100e+00 6.5963900e-02 -5.7504500e-03
6.4777111e+00 6.4731844e-02 -2.1598989e-02
6.4159344e+00 7.0037444e-02 -3.4927639e-02
6.3512800e+00 8.1880700e-02 -4.5736400e-02
6.3512800e+00 8.1880700e-02 -4.5736400e-02
6.2894133e+00 1.0482961e-01 -4.8847200e-02
6.2330300e+00 1.2732704e-01 -5.1179200e-02
6.1821300e+00 1.4937300e-01 -5.2732400e-02
6.1367133e+00 1.7096748e-01 -5.3506800e-02
6.0967800e+00 1.9211048e-01 -5.3502400e-02
6.0623300e+00 2.1280200e-01 -5.2719200e-02
6.1867100e+00 2.7163700e-01 -9.2514200e-02
6.1736189e+00 2.5606367e-01 -8.8625367e-02
6.1574722e+00 2.4279733e-01 -8.3639067e-02
6.1382700e+00 2.3183800e-01 -7.7555300e-02
6.1160122e+00 2.2318567e-01 -7.0374067e-02
6.0906989e+00 2.1684033e-01 -6.2095367e-02
6.0623300e+00 2.1280200e-01 -5.2719200e-02
7.8161300e+00 5.6522800e-01 1.5269800e-01
7.7904933e+00 5.4770356e-01 1.3661769e-01
7.7642667e+00 5.2961356e-01 1.1930469e-01
7.7374500e+00 5.1095800e-01 1.0075900e-01
7.7100433e+00 4.9173689e-01 8.0980622e-02
7.6820467e+00 4.7195022e-01 5.9969556e-02
7.6534600e+00 4.5159800e-01 3.7725800e-02
7.6534600e+00 4.5159800e-01 3.7725800e-02
7.6246300e+00 4.2518389e-01 1.4474578e-02
7.5965333e+00 4.0011422e-01 -2.8601222e-03
7.5691700e+00 3.7638900e-01 -1.4278300e-02
7.5425400e+00 3.5400822e-01 -1.9779956e-02
7.5166433e+00 3.3297189e-01 -1.9365089e-02
7.4914800e+00 3.1328000e-01 -1.3033700e-02
7.4914800e+00 3.1328000e-01 -1.3033700e-02
7.4552944e+00 3.0819200e-01 1.4216000e-02
7.4170178e+00 3.0554733e-01 4.1246200e-02
7.3766500e+00 3.0534600e-01 6.8056900e-02
7.3341911e+00 3.0758800e-01 9.4648100e-02
7.2896411e+00 3.1227333e-01 1.2101980e-01
7.2430000e+00 3.1940200e-01 1.4717200e-01
7.2430000e+00 3.1940200e-01 1.4717200e-01
7.1983278e+00 3.2792378e-01 1.7318078e-01
7.1514278e+00 3.3386311e-01 1.9842511e-01
7.1023000e+00 3.3722000e-01 2.2290500e-01
7.0509444e+00 3.3799444e-01 2.4662044e-01
6.9973611e+00 3.3618644e-01 2.6957144e-01
6.9415500e+00 3.3179600e-01 2.9175800e-01
6.9415500e+00 3.3179600e-01 2.9175800e-01
6.8788889e+00 3.0673033e-01 2.7842599e-01
6.8126389e+00 2.8760600e-01 2.5533032e-01
6.7428000e+00 2.7442300e-01 2.2247100e-01
6.6693722e+00 2.6718133e-01 1.7984802e-01
6.5923556e+00 2.6588100e-01 1.2746139e-01
6.5117500e+00 2.7052200e-01 6.5311100e-02
6.5117500e+00 2.7052200e-01 6.5311100e-02
6.4412156e+00 2.7714589e-01 2.0168244e-02
6.3772256e+00 2.8119456e-01 -1.7439156e-02
6.3197800e+00 2.8266800e-01 -4.7511100e-02
6.2688789e+00 2.8156622e-01 -7.0047589e-02
6.2245222e+00 2.7788922e-01 -8.5048622e-02
6.1867100e+00 2.7163700e-01 -9.2514200e-02
4.5694500e+00 5.1054000e-01 -9.1548900e-02
4.6097967e+00 4.7547722e-01 -8.2560411e-02
4.6573967e+00 4.4142422e-01 -7.6775111e-02
4.7122500e+00 4.0838100e-01 -7.4193000e-02
4.7743567e+00 3.7634756e-01 -7.4814078e-02
4.8437167e+00 3.4532389e-01 -7.8638344e-02
4.9203300e+00 3.1531000e-01 -8.5665800e-02
4.9203300e+00 3.1531000e-01 -8.5665800e-02
5.0033856e+00 3.0751956e-01 -8.5749656e-02
5.0870122e+00 3.0732322e-01 -8.3869156e-02
5.1712100e+00 3.1472100e-01 -8.0024300e-02
5.2559789e+00 3.2971289e-01 -7.4215089e-02
5.3413189e+00 3.5229889e-01 -6.6441522e-02
5.4272300e+00 3.8247900e-01 -5.6703600e-02
5.4272300e+00 3.8247900e-01 -5.6703600e-02
5.5058233e+00 4.1386367e-01 -5.2991811e-02
5.5836433e+00 4.3788867e-01 -5.0552511e-02
5.6606900e+00 4.5455400e-01 -4.9385700e-02
5.7369633e+00 4.6385967e-01 -4.9491378e-02
5.8124633e+00 4.6580567e-01 -5.0869544e-02
5.8871900e+00 4.6039200e-01 -5.3520200e-02
5.8871900e+00 4.6039200e-01 -5.3520200e-02
5.9537322e+00 4.3267811e-01 -5.9715311e-02
6.0136256e+00 4.0346611e-01 -6.6031978e-02
6.0668700e+00 3.7275600e-01 -7.2470200e-02
6.1134656e+00 3.4054778e-01 -7.9029978e-02
6.1534122e+00 3.0684144e-01 -8.5711311e-02
6.1867100e+00 2.7163700e-01 -9.2514200e-02