# vtk DataFile Version 2.0
test
ASCII
DATASET POLYDATA
POINTS 4361 float
4.4172222e+00 6.8253505e+00 1.1859574e+01
4.5244034e+00 6.8885389e+00 1.1731813e+01
4.6337343e+00 6.9511764e+00 1.1605747e+01
4.7452150e+00 7.0132631e+00 1.1481378e+01
4.8588455e+00 7.0747988e+00 1.1358705e+01
4.9746258e+00 7.1357835e+00 1.1237727e+01
5.0925558e+00 7.1962174e+00 1.1118445e+01
5.0925558e+00 7.1962174e+00 1.1118445e+01
5.2148090e+00 7.2607563e+00 1.1003131e+01
5.3435758e+00 7.3239976e+00 1.0896754e+01
5.4788565e+00 7.3859415e+00 1.0799314e+01
5.6206508e+00 7.4465879e+00 1.0710812e+01
5.7689588e+00 7.5059368e+00 1.0631246e+01
5.9237806e+00 7.5639881e+00 1.0560617e+01
5.9237806e+00 7.5639881e+00 1.0560617e+01
6.0885036e+00 7.6176346e+00 1.0510587e+01
6.2554140e+00 7.6683632e+00 1.0474218e+01
6.4245120e+00 7.7161740e+00 1.0451513e+01
6.5957975e+00 7.7610670e+00 1.0442470e+01
6.7692705e+00 7.8030421e+00 1.0447090e+01
6.9449311e+00 7.8420994e+00 1.0465372e+01
6.9449311e+00 7.8420994e+00 1.0465372e+01
7.1189279e+00 7.8767907e+00 1.0488486e+01
7.2926789e+00 7.9088946e+00 1.0515401e+01
7.4661842e+00 7.9384112e+00 1.0546117e+01
7.6394437e+00 7.9653404e+00 1.0580634e+01
7.8124575e+00 7.9896823e+00 1.0618952e+01
7.9852256e+00 8.0114369e+00 1.0661070e+01
7.9852256e+00 8.0114369e+00 1.0661070e+01
8.1580788e+00 8.0309829e+00 1.0703851e+01
8.3318463e+00 8.0481938e+00 1.0742698e+01
8.5065282e+00 8.0630695e+00 1.0777609e+01
8.6821245e+00 8.0756100e+00 1.0808585e+01
8.8586352e+00 8.0858153e+00 1.0835626e+01
9.0360603e+00 8.0936854e+00 1.0858733e+01
9.0360603e+00 8.0936854e+00 1.0858733e+01
9.2162504e+00 8.0986151e+00 1.0872996e+01
9.3947868e+00 8.1011608e+00 1.0873460e+01
9.5716694e+00 8.1013226e+00 1.0860124e+01
9.7468983e+00 8.0991005e+00 1.0832989e+01
9.9204734e+00 8.0944944e+00 1.0792054e+01
1.0092395e+01 8.0875044e+00 1.0737319e+01
1.0092395e+01 8.0875044e+00 1.0737319e+01
1.0257090e+01 8.0779741e+00 1.0664270e+01
1.0413804e+01 8.0679369e+00 1.0579790e+01
1.0562537e+01 8.0573927e+00 1.0483878e+01
1.0703289e+01 8.0463416e+00 1.0376534e+01
1.0836059e+01 8.0347836e+00 1.0257759e+01
1.0960848e+01 8.0227186e+00 1.0127552e+01
1.0960848e+01 8.0227186e+00 1.0127552e+01
1.1074650e+01 8.0202621e+00 9.9895368e+00
1.1186506e+01 8.0163468e+00 9.8500510e+00
1.1296414e+01 8.0109728e+00 9.7090942e+00
1.1404375e+01 8.0041400e+00 9.5666665e+00
1.1510389e+01 7.9958486e+00 9.4227677e+00
1.1614456e+01 7.9860984e+00 9.2773980e+00
1.1614456e+01 7.9860984e+00 9.2773980e+00
1.1513263e+01 7.9175245e+00 9.1395834e+00
1.1412614e+01 7.8468436e+00 9.0025298e+00
1.1312508e+01 7.7740558e+00 8.8662373e+00
1.1212946e+01 7.6991611e+00 8.7307060e+00
1.1113928e+01 7.6221594e+00 8.5959357e+00
1.1015453e+01 7.5430507e+00 8.4619264e+00
1.1015453e+01 7.5430507e+00 8.4619264e+00
1.0918222e+01 7.4723409e+00 8.3221655e+00
1.0825164e+01 7.4005716e+00 8.1804902e+00
1.0736279e+01 7.3277427e+00 8.0369004e+00
1.0651566e+01 7.2538543e+00 7.8913963e+00
1.0571027e+01 7.1789064e+00 7.7439777e+00
1.0494660e+01 7.1028990e+00 7.5946448e+00
1.0494660e+01 7.1028990e+00 7.5946448e+00
1.0425319e+01 7.0259044e+00 7.4416380e+00
1.0364388e+01 6.9467642e+00 7.2872365e+00
1.0311867e+01 6.8654786e+00 7.1314403e+00
1.0267755e+01 6.7820473e+00 6.9742492e+00
1.0232053e+01 6.6964706e+00 6.8156634e+00
1.0204760e+01 6.6087483e+00 6.6556828e+00
1.0204760e+01 6.6087483e+00 6.6556828e+00
1.0189481e+01 6.5188371e+00 6.4953799e+00
1.0184660e+01 6.4275644e+00 6.3365424e+00
1.0190298e+01 6.3349303e+00 6.1791704e+00
1.0206394e+01 6.2409347e+00 6.0232639e+00
1.0232950e+01 6.1455776e+00 5.8688228e+00
1.0269964e+01 6.0488591e+00 5.7158472e+00
1.0269964e+01 6.0488591e+00 5.7158472e+00
1.0315316e+01 5.9515348e+00 5.5665430e+00
1.0366536e+01 5.8533295e+00 5.4203775e+00
1.0423623e+01 5.7542430e+00 5.2773505e+00
1.0486579e+01 5.6542753e+00 5.1374622e+00
1.0555402e+01 5.5534265e+00 5.0007124e+00
1.0630093e+01 5.4516966e+00 4.8671013e+00
1.0630093e+01 5.4516966e+00 4.8671013e+00
1.0707784e+01 5.3498101e+00 4.7359183e+00
1.0787055e+01 5.2469433e+00 4.6065557e+00
1.0867907e+01 5.1430964e+00 4.4790133e+00
1.0950339e+01 5.0382692e+00 4.3532913e+00
1.1034351e+01 4.9324617e+00 4.2293896e+00
1.1119943e+01 4.8256741e+00 4.1073081e+00
1.1119943e+01 4.8256741e+00 4.1073081e+00
1.1204894e+01 4.7167633e+00 3.9868033e+00
1.1287653e+01 4.6054560e+00 3.8669878e+00
1.1368221e+01 4.4917524e+00 3.7478616e+00
1.1446598e+01 4.3756524e+00 3.6294247e+00
1.1522783e+01 4.2571559e+00 3.5116771e+00
1.1596777e+01 4.1362631e+00 3.3946188e+00
1.1596777e+01 4.1362631e+00 3.3946188e+00
1.1666519e+01 4.0125002e+00 3.2773888e+00
1.1729569e+01 3.8859254e+00 3.1602719e+00
1.1785929e+01 3.7565386e+00 3.0432684e+00
1.1835596e+01 3.6243399e+00 2.9263780e+00
1.1878573e+01 3.4893291e+00 2.8096009e+00
1.1914858e+01 3.3515064e+00 2.6929371e+00
1.1914858e+01 3.3515064e+00 2.6929371e+00
1.1943050e+01 3.2098484e+00 2.5775665e+00
1.1961271e+01 3.0668375e+00 2.4635829e+00
1.1969519e+01 2.9224737e+00 2.3509861e+00
1.1967795e+01 2.7767569e+00 2.2397763e+00
1.1956098e+01 2.6296873e+00 2.1299533e+00
1.1934430e+01 2.4812647e+00 2.0215172e+00
1.1934430e+01 2.4812647e+00 2.0215172e+00
1.1901188e+01 2.3348861e+00 1.9136264e+00
1.1860138e+01 2.1896126e+00 1.8080812e+00
1.1811279e+01 2.0454444e+00 1.7048815e+00
1.1754611e+01 1.9023813e+00 1.6040274e+00
1.1690134e+01 1.7604234e+00 1.5055188e+00
1.1617849e+01 1.6195706e+00 1.4093558e+00
1.1617849e+01 1.6195706e+00 1.4093558e+00
1.1538104e+01 1.4810290e+00 1.3164156e+00
1.1454655e+01 1.3436404e+00 1.2254610e+00
1.1367501e+01 1.2074049e+00 1.1364921e+00
1.1276643e+01 1.0723224e+00 1.0495087e+00
1.1182080e+01 9.3839298e-01 9.6451100e-01
1.1083813e+01 8.0561657e-01 8.8149887e-01
1.1083813e+01 8.0561657e-01 8.8149887e-01
1.0985000e+01 6.7205363e-01 8.0010429e-01
1.0885434e+01 5.3875112e-01 7.1927442e-01
1.0785115e+01 4.0570902e-01 6.3900927e-01
1.0684043e+01 2.7292734e-01 5.5930883e-01
1.0582218e+01 1.4040607e-01 4.8017311e-01
1.0479640e+01 8.1452300e-03 4.0160211e-01
2.2117810e+00 5.6994411e+00 1.1711686e+01
2.1799490e+00 5.6583510e+00 1.1527064e+01
2.1490612e+00 5.6146145e+00 1.1342976e+01
2.1191178e+00 5.5682315e+00 1.1159421e+01
2.0901187e+00 5.5192022e+00 1.0976402e+01
2.0620638e+00 5.4675264e+00 1.0793916e+01
2.0349532e+00 5.4132043e+00 1.0611964e+01
2.0349532e+00 5.4132043e+00 1.0611964e+01
2.0152655e+00 5.3655900e+00 1.0426758e+01
2.0027066e+00 5.3158556e+00 1.0242152e+01
1.9972766e+00 5.2640011e+00 1.0058146e+01
1.9989754e+00 5.2100264e+00 9.8747387e+00
2.0078031e+00 5.1539317e+00 9.6919316e+00
2.0237596e+00 5.0957169e+00 9.5097242e+00
2.0237596e+00 5.0957169e+00 9.5097242e+00
2.0528345e+00 5.0327679e+00 9.3297519e+00
2.0923165e+00 4.9668116e+00 9.1546119e+00
2.1422056e+00 4.8978480e+00 8.9843040e+00
2.2025017e+00 4.8258769e+00 8.8188282e+00
2.2732049e+00 4.7508984e+00 8.6581846e+00
2.3543152e+00 4.6729125e+00 8.5023731e+00
2.3543152e+00 4.6729125e+00 8.5023731e+00
2.4487974e+00 4.5917517e+00 8.3558934e+00
2.5518115e+00 4.5091773e+00 8.2182253e+00
2.6633576e+00 4.4251893e+00 8.0893690e+00
2.7834356e+00 4.3397877e+00 7.9693242e+00
2.9120455e+00 4.2529725e+00 7.8580912e+00
3.0491873e+00 4.1647437e+00 7.7556698e+00
3.0491873e+00 4.1647437e+00 7.7556698e+00
3.1865733e+00 4.0765501e+00 7.6565829e+00
3.3248566e+00 3.9871610e+00 7.5600707e+00
3.4640372e+00 3.8965764e+00 7.4661333e+00
3.6041150e+00 3.8047963e+00 7.3747705e+00
3.7450901e+00 3.7118207e+00 7.2859826e+00
3.8869625e+00 3.6176496e+00 7.1997693e+00
3.8869625e+00 3.6176496e+00 7.1997693e+00
4.0297794e+00 3.5214994e+00 7.1168482e+00
4.1697737e+00 3.4227485e+00 7.0325818e+00
4.3069452e+00 3.3213970e+00 6.9469703e+00
4.4412941e+00 3.2174447e+00 6.8600135e+00
4.5728204e+00 3.1108918e+00 6.7717115e+00
4.7015239e+00 3.0017382e+00 6.6820642e+00
4.7015239e+00 3.0017382e+00 6.6820642e+00
4.8254812e+00 2.8894530e+00 6.5877904e+00
4.9404629e+00 2.7737979e+00 6.4886404e+00
5.0464688e+00 2.6547729e+00 6.3846142e+00
5.1434989e+00 2.5323780e+00 6.2757118e+00
5.2315534e+00 2.4066133e+00 6.1619332e+00
5.3106322e+00 2.2774787e+00 6.0432784e+00
5.3106322e+00 2.2774787e+00 6.0432784e+00
5.3731044e+00 2.1446349e+00 5.9178837e+00
5.4227202e+00 2.0118083e+00 5.7894741e+00
5.4594798e+00 1.8789990e+00 5.6580496e+00
5.4833831e+00 1.7462070e+00 5.5236101e+00
5.4944300e+00 1.6134322e+00 5.3861557e+00
5.4926206e+00 1.4806747e+00 5.2456863e+00
5.4926206e+00 1.4806747e+00 5.2456863e+00
5.4801819e+00 1.3518551e+00 5.1033462e+00
5.4610847e+00 1.2246253e+00 4.9609013e+00
5.4353290e+00 1.0989853e+00 4.8183516e+00
5.4029149e+00 9.7493507e-01 4.6756970e+00
5.3638423e+00 8.5247461e-01 4.5329376e+00
5.3181112e+00 7.3160391e-01 4.3900733e+00
5.3181112e+00 7.3160391e-01 4.3900733e+00
5.2700554e+00 6.0946276e-01 4.2497910e+00
5.2205465e+00 4.8754190e-01 4.1097285e+00
5.1695845e+00 3.6584134e-01 3.9698859e+00
5.1171694e+00 2.4436107e-01 3.8302631e+00
5.0633013e+00 1.2310111e-01 3.6908603e+00
5.0079801e+00 2.0614400e-03 3.5516772e+00
9.9326100e-01 5.4973034e+00 1.3900720e+01
1.0569213e+00 5.6029680e+00 1.3748014e+01
1.1332647e+00 5.7083413e+00 1.3605154e+01
1.2222911e+00 5.8134232e+00 1.3472139e+01
1.3240004e+00 5.9182138e+00 1.3348971e+01
1.4383928e+00 6.0227130e+00 1.3235649e+01
1.5654682e+00 6.1269209e+00 1.3132174e+01
1.5654682e+00 6.1269209e+00 1.3132174e+01
1.7254086e+00 6.2199240e+00 1.3071151e+01
1.8917691e+00 6.3029675e+00 1.3024537e+01
2.0645500e+00 6.3760514e+00 1.2992332e+01
2.2437511e+00 6.4391757e+00 1.2974536e+01
2.4293724e+00 6.4923403e+00 1.2971149e+01
2.6214140e+00 6.5355454e+00 1.2982172e+01
2.6214140e+00 6.5355454e+00 1.2982172e+01
2.8146557e+00 6.5726697e+00 1.2992918e+01
3.0042960e+00 6.6072962e+00 1.2985256e+01
3.1903348e+00 6.6394249e+00 1.2959186e+01
3.3727721e+00 6.6690560e+00 1.2914708e+01
3.5516080e+00 6.6961892e+00 1.2851822e+01
3.7268425e+00 6.7208248e+00 1.2770528e+01
3.7268425e+00 6.7208248e+00 1.2770528e+01
3.8720526e+00 6.7446320e+00 1.2643528e+01
4.0052040e+00 6.7658847e+00 1.2506598e+01
4.1262967e+00 6.7845829e+00 1.2359737e+01
4.2353306e+00 6.8007266e+00 1.2202946e+01
[...]
POINT_DATA 4361
VECTORS U float
1.1203200e+00 3.6250200e-01 -7.6832400e-03
1.1316656e+00 3.5419433e-01 -1.7505722e-03
1.1425256e+00 3.4501300e-01 3.5587378e-03
1.1529000e+00 3.3495800e-01 8.2446900e-03
1.1627889e+00 3.2402933e-01 1.2307284e-02
1.1721922e+00 3.1222700e-01 1.5746521e-02
1.1811100e+00 2.9955100e-01 1.8562400e-02
1.1811100e+00 2.9955100e-01 1.8562400e-02
1.1881733e+00 2.8978211e-01 2.1123533e-02
1.1945600e+00 2.7918344e-01 2.2496333e-02
1.2002700e+00 2.6775500e-01 2.2680800e-02
1.2053033e+00 2.5549678e-01 2.1676933e-02
1.2096600e+00 2.4240878e-01 1.9484733e-02
1.2133400e+00 2.2849100e-01 1.6104200e-02
1.2133400e+00 2.2849100e-01 1.6104200e-02
1.2184222e+00 2.1286889e-01 1.4775211e-02
1.2229456e+00 1.9819189e-01 1.4335978e-02
1.2269100e+00 1.8446000e-01 1.4786500e-02
1.2303156e+00 1.7167322e-01 1.6126778e-02
1.2331622e+00 1.5983156e-01 1.8356811e-02
1.2354500e+00 1.4893500e-01 2.1476600e-02
1.2354500e+00 1.4893500e-01 2.1476600e-02
1.2374978e+00 1.3827902e-01 2.1162556e-02
1.2392444e+00 1.2842769e-01 2.0973822e-02
1.2406900e+00 1.1938100e-01 2.0910400e-02
1.2418344e+00 1.1113896e-01 2.0972289e-02
1.2426778e+00 1.0370156e-01 2.1159489e-02
1.2432200e+00 9.7068800e-02 2.1472000e-02
1.2432200e+00 9.7068800e-02 2.1472000e-02
1.2433967e+00 9.0850500e-02 2.2607533e-02
1.2434867e+00 8.5053367e-02 2.3860167e-02
1.2434900e+00 7.9677400e-02 2.5229900e-02
1.2434067e+00 7.4722600e-02 2.6716733e-02
1.2432367e+00 7.0188967e-02 2.8320667e-02
1.2429800e+00 6.6076500e-02 3.0041700e-02
1.2429800e+00 6.6076500e-02 3.0041700e-02
1.2427822e+00 6.1880422e-02 3.1642456e-02
1.2424956e+00 5.8314222e-02 3.2637522e-02
1.2421200e+00 5.5377900e-02 3.3026900e-02
1.2416556e+00 5.3071456e-02 3.2810589e-02
1.2411022e+00 5.1394889e-02 3.1988589e-02
1.2404600e+00 5.0348200e-02 3.0560900e-02
1.2404600e+00 5.0348200e-02 3.0560900e-02
1.2400844e+00 4.9916444e-02 2.9723621e-02
1.2385578e+00 5.0606711e-02 2.7708554e-02
1.2358800e+00 5.2419000e-02 2.4515700e-02
1.2320511e+00 5.5353311e-02 2.0145058e-02
1.2270711e+00 5.9409644e-02 1.4596628e-02
1.2209400e+00 6.4588000e-02 7.8704100e-03
1.2209400e+00 6.4588000e-02 7.8704100e-03
1.2101311e+00 7.9808111e-02 -2.4882611e-03
1.2000144e+00 9.3869111e-02 -1.2000031e-02
1.1905900e+00 1.0677100e-01 -2.0664900e-02
1.1818578e+00 1.1851378e-01 -2.8482868e-02
1.1738178e+00 1.2909744e-01 -3.5453934e-02
1.1664700e+00 1.3852200e-01 -4.1578100e-02
1.1664700e+00 1.3852200e-01 -4.1578100e-02
1.1601389e+00 1.3359599e-01 -3.5152856e-02
1.1530089e+00 1.2707766e-01 -2.7357356e-02
1.1450800e+00 1.1896700e-01 -1.8191600e-02
1.1363522e+00 1.0926402e-01 -7.6555889e-03
1.1268256e+00 9.7968722e-02 4.2506778e-03
1.1165000e+00 8.5081100e-02 1.7527200e-02
1.1165000e+00 8.5081100e-02 1.7527200e-02
1.1049022e+00 8.1643278e-02 2.6388222e-02
1.0927089e+00 7.8704578e-02 3.4893689e-02
1.0799200e+00 7.6265000e-02 4.3043600e-02
1.0665356e+00 7.4324544e-02 5.0837956e-02
1.0525556e+00 7.2883211e-02 5.8276756e-02
1.0379800e+00 7.1941000e-02 6.5360000e-02
1.0379800e+00 7.1941000e-02 6.5360000e-02
1.0233563e+00 7.2297144e-02 7.1050756e-02
1.0078423e+00 7.2547844e-02 7.6095422e-02
9.9143800e-01 7.2693100e-02 8.0494000e-02
9.7414333e-01 7.2732911e-02 8.4246489e-02
9.5595833e-01 7.2667278e-02 8.7352889e-02
9.3688300e-01 7.2496200e-02 8.9813200e-02
9.3688300e-01 7.2496200e-02 8.9813200e-02
9.1744544e-01 7.2046656e-02 9.1211667e-02
8.9858744e-01 7.1213189e-02 9.1688700e-02
8.8030900e-01 6.9995800e-02 9.1244300e-02
8.6261011e-01 6.8394489e-02 8.9878467e-02
8.4549078e-01 6.6409256e-02 8.7591200e-02
8.2895100e-01 6.4040100e-02 8.4382500e-02
8.2895100e-01 6.4040100e-02 8.4382500e-02
8.1260533e-01 6.1167844e-02 8.0767922e-02
7.9675567e-01 5.7807644e-02 7.7114522e-02
7.8140200e-01 5.3959500e-02 7.3422300e-02
7.6654433e-01 4.9623411e-02 6.9691256e-02
7.5218267e-01 4.4799378e-02 6.5921389e-02
7.3831700e-01 3.9487400e-02 6.2112700e-02
7.3831700e-01 3.9487400e-02 6.2112700e-02
7.2458500e-01 3.4441330e-02 5.7921878e-02
7.1091933e-01 2.9423363e-02 5.3555544e-02
6.9732000e-01 2.4433500e-02 4.9013700e-02
6.8378700e-01 1.9471740e-02 4.4296344e-02
6.7032033e-01 1.4538083e-02 3.9403478e-02
6.5692000e-01 9.6325300e-03 3.4335100e-02
6.5692000e-01 9.6325300e-03 3.4335100e-02
6.4288200e-01 4.0503167e-03 2.9571089e-02
6.2817433e-01 -1.8243933e-03 2.4754922e-02
6.1279700e-01 -7.9916000e-03 1.9886600e-02
5.9675000e-01 -1.4451303e-02 1.4966122e-02
5.8003333e-01 -2.1203503e-02 9.9934889e-03
5.6264700e-01 -2.8248200e-02 4.9687000e-03
5.6264700e-01 -2.8248200e-02 4.9687000e-03
5.4388311e-01 -3.5329767e-02 -2.8090000e-04
5.2380878e-01 -4.2036967e-02 -5.3881000e-03
5.0242400e-01 -4.8369800e-02 -1.0352900e-02
4.7972878e-01 -5.4328267e-02 -1.5175300e-02
4.5572311e-01 -5.9912367e-02 -1.9855300e-02
4.3040700e-01 -6.5122100e-02 -2.4392900e-02
4.3040700e-01 -6.5122100e-02 -2.4392900e-02
4.0515189e-01 -7.0133267e-02 -2.7197978e-02
3.7981256e-01 -7.4033267e-02 -2.9256244e-02
3.5438900e-01 -7.6822100e-02 -3.0567700e-02
3.2888122e-01 -7.8499767e-02 -3.1132344e-02
3.0328922e-01 -7.9066267e-02 -3.0950178e-02
2.7761300e-01 -7.8521600e-02 -3.0021200e-02
2.7761300e-01 -7.8521600e-02 -3.0021200e-02
2.5274544e-01 -7.4990822e-02 -3.0316311e-02
2.2937311e-01 -7.0863389e-02 -3.0361611e-02
2.0749600e-01 -6.6139300e-02 -3.0157100e-02
1.8711411e-01 -6.0818556e-02 -2.9702778e-02
1.6822744e-01 -5.4901156e-02 -2.8998644e-02
1.5083600e-01 -4.8387100e-02 -2.8044700e-02
1.5083600e-01 -4.8387100e-02 -2.8044700e-02
1.3305954e-01 -4.1552833e-02 -2.6408278e-02
1.1634754e-01 -3.4926167e-02 -2.4519244e-02
1.0070000e-01 -2.8507100e-02 -2.2377600e-02
8.6116911e-02 -2.2295633e-02 -1.9983344e-02
7.2598278e-02 -1.6291767e-02 -1.7336478e-02
6.0144100e-02 -1.0495500e-02 -1.4437000e-02
6.0144100e-02 -1.0495500e-02 -1.4437000e-02
4.9659850e-02 -6.6840184e-03 -1.1126653e-02
3.9764950e-02 -3.1544141e-03 -7.8364267e-03
3.0459400e-02 9.3312900e-05 -4.5663200e-03
2.1743200e-02 3.0591626e-03 -1.3163333e-03
1.3616350e-02 5.7431349e-03 1.9135333e-03
6.0788500e-03 8.1452300e-03 5.1232800e-03
9.9366100e-01 4.8792900e-01 6.7131100e-02
9.8441589e-01 4.8307011e-01 7.0029544e-02
9.7381489e-01 4.7615111e-01 7.3542778e-02
9.6185800e-01 4.6717200e-01 7.7670800e-02
9.4854522e-01 4.5613278e-01 8.2413611e-02
9.3387656e-01 4.4303344e-01 8.7771211e-02
9.1785200e-01 4.2787400e-01 9.3743600e-02
9.1785200e-01 4.2787400e-01 9.3743600e-02
9.0475811e-01 4.2062689e-01 9.7065111e-02
8.9083144e-01 4.1310822e-01 9.9931244e-02
8.7607200e-01 4.0531800e-01 1.0234200e-01
8.6047978e-01 3.9725622e-01 1.0429738e-01
8.4405478e-01 3.8892289e-01 1.0579738e-01
8.2679700e-01 3.8031800e-01 1.0684200e-01
8.2679700e-01 3.8031800e-01 1.0684200e-01
8.0991222e-01 3.6977922e-01 1.0767393e-01
7.9179922e-01 3.5842589e-01 1.0729060e-01
7.7245800e-01 3.4625800e-01 1.0569200e-01
7.5188856e-01 3.3327556e-01 1.0287813e-01
7.3009089e-01 3.1947856e-01 9.8849000e-02
7.0706500e-01 3.0486700e-01 9.3604600e-02
7.0706500e-01 3.0486700e-01 9.3604600e-02
6.8651789e-01 2.8863778e-01 8.7714956e-02
6.6839156e-01 2.7229344e-01 8.3491356e-02
6.5268600e-01 2.5583400e-01 8.0933800e-02
6.3940122e-01 2.3925944e-01 8.0042289e-02
6.2853722e-01 2.2256978e-01 8.0816822e-02
6.2009400e-01 2.0576500e-01 8.3257400e-02
6.2009400e-01 2.0576500e-01 8.3257400e-02
6.0956789e-01 1.8998644e-01 8.3539189e-02
5.9884856e-01 1.7466011e-01 8.3242989e-02
5.8793600e-01 1.5978600e-01 8.2368800e-02
5.7683022e-01 1.4536411e-01 8.0916622e-02
5.6553122e-01 1.3139444e-01 7.8886456e-02
5.5403900e-01 1.1787700e-01 7.6278300e-02
5.5403900e-01 1.1787700e-01 7.6278300e-02
5.4399689e-01 1.0442728e-01 7.5881489e-02
5.3334456e-01 9.1271711e-02 7.4893622e-02
5.2208200e-01 7.8410300e-02 7.3314700e-02
5.1020922e-01 6.5843044e-02 7.1144722e-02
4.9772622e-01 5.3569944e-02 6.8383689e-02
4.8463300e-01 4.1591000e-02 6.5031600e-02
4.8463300e-01 4.1591000e-02 6.5031600e-02
4.7034356e-01 3.0440567e-02 5.9931811e-02
4.5450289e-01 1.9939133e-02 5.4293778e-02
4.3711100e-01 1.0086700e-02 4.8117500e-02
4.1816789e-01 8.8326667e-04 4.1402978e-02
3.9767356e-01 -7.6711667e-03 3.4150211e-02
3.7562800e-01 -1.5576600e-02 2.6359200e-02
3.7562800e-01 -1.5576600e-02 2.6359200e-02
3.4939344e-01 -2.2576256e-02 1.8546270e-02
3.2286411e-01 -2.8001422e-02 1.1785687e-02
2.9604000e-01 -3.1852100e-02 6.0774500e-03
2.6892111e-01 -3.4128289e-02 1.4215600e-03
2.4150744e-01 -3.4829989e-02 -2.1819833e-03
2.1379900e-01 -3.3957200e-02 -4.7331800e-03
2.1379900e-01 -3.3957200e-02 -4.7331800e-03
1.8855491e-01 -3.0536383e-02 -7.4517222e-03
1.6477591e-01 -2.6718717e-02 -9.5662289e-03
1.4246200e-01 -2.2504200e-02 -1.1076700e-02
1.2161318e-01 -1.7892833e-02 -1.1983136e-02
1.0222944e-01 -1.2884617e-02 -1.2285536e-02
8.4310800e-02 -7.4795500e-03 -1.1983900e-02
8.4310800e-02 -7.4795500e-03 -1.1983900e-02
6.8477133e-02 -4.8833456e-03 -9.5274578e-03
5.3481567e-02 -2.6895569e-03 -6.9125478e-03
3.9324100e-02 -8.9818400e-04 -4.1391700e-03
2.6004733e-02 4.9077311e-04 -1.2073244e-03
1.3523467e-02 1.4773144e-03 1.8829889e-03
1.8803000e-03 2.0614400e-03 5.1317700e-03
9.9326100e-01 5.2759900e-01 -1.9062400e-02
1.0062239e+00 5.3018944e-01 -1.2381949e-02
1.0185069e+00 5.3105311e-01 -5.9986054e-03
1.0301100e+00 5.3019000e-01 8.7631400e-05
1.0410332e+00 5.2760011e-01 5.8767612e-03
1.0512766e+00 5.2328344e-01 1.1368784e-02
1.0608400e+00 5.1724000e-01 1.6563700e-02
1.0608400e+00 5.1724000e-01 1.6563700e-02
1.0689867e+00 5.0577911e-01 1.9601503e-02
1.0764667e+00 4.9314711e-01 2.0969103e-02
1.0832800e+00 4.7934400e-01 2.0666500e-02
1.0894267e+00 4.6436978e-01 1.8693693e-02
1.0949067e+00 4.4822444e-01 1.5050683e-02
1.0997200e+00 4.3090800e-01 9.7374700e-03
1.0997200e+00 4.3090800e-01 9.7374700e-03
1.1041800e+00 4.1227011e-01 5.1151722e-03
1.1076700e+00 3.9599678e-01 9.3790889e-04
1.1101900e+00 3.8208800e-01 -2.7943200e-03
1.1117400e+00 3.7054378e-01 -6.0815144e-03
1.1123200e+00 3.6136411e-01 -8.9236744e-03
1.1119300e+00 3.5454900e-01 -1.1320800e-02
1.1119300e+00 3.5454900e-01 -1.1320800e-02
1.1112978e+00 3.5490422e-01 -1.2012751e-02
1.1114778e+00 3.5564756e-01 -1.2185418e-02
1.1124700e+00 3.5677900e-01 -1.1838800e-02
1.1142744e+00 3.5829856e-01 -1.0972898e-02
1.1168911e+00 3.6020622e-01 -9.5877111e-03
1.1203200e+00 3.6250200e-01 -7.6832400e-03
9.6251000e-01 5.1497700e-01 2.1814200e-02
9.7002822e-01 5.1390122e-01 3.2962378e-02
9.7661589e-01 5.1145256e-01 4.2672411e-02
9.8227300e-01 5.0763100e-01 5.0944300e-02
9.8699956e-01 5.0243656e-01 5.7778044e-02
9.9079556e-01 4.9586922e-01 6.3173644e-02
9.9366100e-01 4.8792900e-01 6.7131100e-02
1.1664700e+00 1.3852200e-01 -4.1578100e-02
1.1565367e+00 1.2253189e-01 -4.0016589e-02
1.1463133e+00 1.0721296e-01 -3.7996822e-02
1.1358000e+00 9.2565200e-02 -3.5518800e-02
1.1249967e+00 7.8588622e-02 -3.2582522e-02
1.1139033e+00 6.5283222e-02 -2.9187989e-02
1.1025200e+00 5.2649000e-02 -2.5335200e-02
1.1025200e+00 5.2649000e-02 -2.5335200e-02
1.0963811e+00 4.5178033e-02 -2.4170814e-02
1.0890144e+00 3.8377933e-02 -2.1772214e-02
1.0804200e+00 3.2248700e-02 -1.8139400e-02
1.0705978e+00 2.6790333e-02 -1.3272372e-02
1.0595478e+00 2.2002833e-02 -7.1711300e-03
1.0472700e+00 1.7886200e-02 1.6432600e-04
1.0472700e+00 1.7886200e-02 1.6432600e-04
1.0334764e+00 1.2920276e-02 6.6214922e-03
1.0192664e+00 8.5442022e-03 1.2511250e-02
1.0046400e+00 4.7579800e-03 1.7833600e-02
9.8959711e-01 1.5616089e-03 2.2588542e-02
9.7413778e-01 -1.0449111e-03 2.6776075e-02
9.5826200e-01 -3.0615800e-03 3.0396200e-02
9.5826200e-01 -3.0615800e-03 3.0396200e-02
9.3617622e-01 -5.1618267e-03 3.3495589e-02
9.1358989e-01 -6.8614300e-03 3.5495156e-02
8.9050300e-01 -8.1603900e-03 3.6394900e-02
8.6691556e-01 -9.0587067e-03 3.6194822e-02
8.4282756e-01 -9.5563800e-03 3.4894922e-02
8.1823900e-01 -9.6534100e-03 3.2495200e-02
8.1823900e-01 -9.6534100e-03 3.2495200e-02
7.9763456e-01 -8.1710633e-03 3.0593156e-02
7.7731989e-01 -6.2320233e-03 2.8423122e-02
7.5729500e-01 -3.8362900e-03 2.5985100e-02
7.3755989e-01 -9.8386333e-04 2.3279089e-02
7.1811456e-01 2.3252567e-03 2.0305089e-02
6.9895900e-01 6.0910700e-03 1.7063100e-02
6.9895900e-01 6.0910700e-03 1.7063100e-02
6.7952367e-01 9.0891167e-03 1.2961479e-02
6.5987433e-01 1.2379060e-02 8.8553889e-03
6.4001100e-01 1.5960900e-02 4.7448300e-03
6.1993367e-01 1.9834637e-02 6.2980222e-04
5.9964233e-01 2.4000270e-02 -3.4896944e-03
5.7913700e-01 2.8457800e-02 -7.6136600e-03
5.7913700e-01 2.8457800e-02 -7.6136600e-03
5.6042089e-01 3.2084444e-02 -1.1487544e-02
5.4029989e-01 3.6276411e-02 -1.4749258e-02
5.1877400e-01 4.1033700e-02 -1.7398800e-02
4.9584322e-01 4.6356311e-02 -1.9436171e-02
4.7150756e-01 5.2244244e-02 -2.0861371e-02
4.4576700e-01 5.8697500e-02 -2.1674400e-02
4.4576700e-01 5.8697500e-02 -2.1674400e-02
4.1578844e-01 6.7046589e-02 -2.0750633e-02
3.8684044e-01 7.3721422e-02 -1.9506333e-02
3.5892300e-01 7.8722000e-02 -1.7941500e-02
3.3203611e-01 8.2048322e-02 -1.6056133e-02
3.0617978e-01 8.3700389e-02 -1.3850233e-02
2.8135400e-01 8.3678200e-02 -1.1323800e-02
2.8135400e-01 8.3678200e-02 -1.1323800e-02
2.5483067e-01 8.1648222e-02 -8.6918611e-03
2.2999767e-01 7.8673056e-02 -6.2127644e-03
2.0685500e-01 7.4752700e-02 -3.8865100e-03
1.8540267e-01 6.9887156e-02 -1.7130978e-03
1.6564067e-01 6.4076422e-02 3.0747222e-04
1.4756900e-01 5.7320500e-02 2.1752000e-03
1.4756900e-01 5.7320500e-02 2.1752000e-03
1.3022472e-01 5.0801622e-02 5.0583667e-03
1.1370309e-01 4.4335956e-02 7.7461667e-03
9.8004100e-02 3.7923500e-02 1.0238600e-02
8.3127756e-02 3.1564256e-02 1.2535667e-02
6.9074056e-02 2.5258222e-02 1.4637367e-02
5.5843000e-02 1.9005400e-02 1.6543700e-02
5.5843000e-02 1.9005400e-02 1.6543700e-02
4.8625082e-02 1.6243123e-02 1.3837531e-02
4.1183716e-02 1.2852947e-02 1.1163861e-02
3.3518900e-02 8.8348700e-03 8.5226900e-03
2.5630636e-02 4.1888933e-03 5.9140189e-03
1.7518922e-02 -1.0849833e-03 3.3378472e-03
9.1837600e-03 -6.9867600e-03 7.9417500e-04
3.7002000e+00 2.5941900e-01 8.4674400e-02
3.6939556e+00 2.3920533e-01 9.0984778e-02
3.6871722e+00 2.1965667e-01 9.7140644e-02
3.6798500e+00 2.0077300e-01 1.0314200e-01
3.6719889e+00 1.8255433e-01 1.0898884e-01
3.6635889e+00 1.6500067e-01 1.1468118e-01
3.6546500e+00 1.4811200e-01 1.2021900e-01
3.6546500e+00 1.4811200e-01 1.2021900e-01
3.6467522e+00 1.3678600e-01 1.2391178e-01
3.6386656e+00 1.2851233e-01 1.2732978e-01
3.6303900e+00 1.2329100e-01 1.3047300e-01
3.6219256e+00 1.2112200e-01 1.3334144e-01
3.6132722e+00 1.2200533e-01 1.3593511e-01
3.6044300e+00 1.2594100e-01 1.3825400e-01
3.6044300e+00 1.2594100e-01 1.3825400e-01
3.5954700e+00 1.2944022e-01 1.4015711e-01
3.5854500e+00 1.3334089e-01 1.4221111e-01
3.5743700e+00 1.3764300e-01 1.4441600e-01
3.5622300e+00 1.4234656e-01 1.4677178e-01
3.5490300e+00 1.4745156e-01 1.4927844e-01
3.5347700e+00 1.5295800e-01 1.5193600e-01
3.5347700e+00 1.5295800e-01 1.5193600e-01
3.5156411e+00 1.5913489e-01 1.5654300e-01
3.4974244e+00 1.6232789e-01 1.6100000e-01
3.4801200e+00 1.6253700e-01 1.6530700e-01
3.4637278e+00 1.5976222e-01 1.6946400e-01
3.4482478e+00 1.5400356e-01 1.7347100e-01
3.4336800e+00 1.4526100e-01 1.7732800e-01
3.4336800e+00 1.4526100e-01 1.7732800e-01
3.4222400e+00 1.3520483e-01 1.7860411e-01
3.4114100e+00 1.2476250e-01 1.7849044e-01
3.4011900e+00 1.1393400e-01 1.7698700e-01
3.3915800e+00 1.0271933e-01 1.7409378e-01
3.3825800e+00 9.1118500e-02 1.6981078e-01
3.3741900e+00 7.9131500e-02 1.6413800e-01
3.3741900e+00 7.9131500e-02 1.6413800e-01
3.3587778e+00 9.0042722e-02 1.6529400e-01
3.3420811e+00 1.0036922e-01 1.6562200e-01
3.3241000e+00 1.1011100e-01 1.6512200e-01
3.3048344e+00 1.1926806e-01 1.6379400e-01
3.2842844e+00 1.2784039e-01 1.6163800e-01
3.2624500e+00 1.3582800e-01 1.5865400e-01
3.2624500e+00 1.3582800e-01 1.5865400e-01
3.2415344e+00 1.4073589e-01 1.5224344e-01
3.2221478e+00 1.4320522e-01 1.4522044e-01
3.2042900e+00 1.4323600e-01 1.3758500e-01
3.1879611e+00 1.4082822e-01 1.2933711e-01
3.1731611e+00 1.3598189e-01 1.2047678e-01
3.1598900e+00 1.2869700e-01 1.1100400e-01
3.1598900e+00 1.2869700e-01 1.1100400e-01
3.1486278e+00 1.1899241e-01 1.0523854e-01
3.1363211e+00 1.0894831e-01 9.8966378e-02
3.1229700e+00 9.8564700e-02 9.2187500e-02
3.1085744e+00 8.7841578e-02 8.4901911e-02
3.0931344e+00 7.6778944e-02 7.7109611e-02
3.0766500e+00 6.5376800e-02 6.8810600e-02
3.0766500e+00 6.5376800e-02 6.8810600e-02
3.0561244e+00 5.4310756e-02 5.7981256e-02
3.0336644e+00 4.5983689e-02 4.8100156e-02
3.0092700e+00 4.0395600e-02 3.9167300e-02
2.9829411e+00 3.7546489e-02 3.1182689e-02
2.9546778e+00 3.7436356e-02 2.4146322e-02
2.9244800e+00 4.0065200e-02 1.8058200e-02
2.9244800e+00 4.0065200e-02 1.8058200e-02
2.8940311e+00 4.8552922e-02 1.5480933e-02
2.8664044e+00 5.6955656e-02 1.3526600e-02
2.8416000e+00 6.5273400e-02 1.2195200e-02
2.8196178e+00 7.3506156e-02 1.1486733e-02
2.8004578e+00 8.1653922e-02 1.1401200e-02
2.7841200e+00 8.9716700e-02 1.1938600e-02
2.8357000e+00 1.1958900e-01 -6.1681200e-03
2.8312922e+00 1.1124253e-01 -5.4348056e-03
2.8252089e+00 1.0424317e-01 -3.7877022e-03
2.8174500e+00 9.8590900e-02 -1.2268100e-03
2.8080156e+00 9.4285733e-02 2.2478711e-03
2.7969056e+00 9.1327667e-02 6.6363411e-03
2.7841200e+00 8.9716700e-02 1.1938600e-02
3.5225900e+00 2.8319600e-01 8.3847000e-02
3.5116567e+00 2.7484744e-01 7.6388544e-02
3.5007100e+00 2.6633878e-01 6.8525311e-02
3.4897500e+00 2.5767000e-01 6.0257300e-02
3.4787767e+00 2.4884111e-01 5.1584511e-02
3.4677900e+00 2.3985211e-01 4.2506944e-02
3.4567900e+00 2.3070300e-01 3.3024600e-02
3.4567900e+00 2.3070300e-01 3.3024600e-02
3.4462878e+00 2.1952078e-01 2.3612400e-02
3.4360244e+00 2.0904844e-01 1.6628033e-02
3.4260000e+00 1.9928600e-01 1.2071500e-02
3.4162144e+00 1.9023344e-01 9.9428000e-03
3.4066678e+00 1.8189078e-01 1.0241933e-02
3.3973600e+00 1.7425800e-01 1.2968900e-02
3.3973600e+00 1.7425800e-01 1.2968900e-02
3.3826867e+00 1.7075689e-01 2.4728767e-02
3.3669300e+00 1.6832022e-01 3.6671067e-02
3.3500900e+00 1.6694800e-01 4.8795800e-02
3.3321667e+00 1.6664022e-01 6.1102967e-02
3.3131600e+00 1.6739689e-01 7.3592567e-02
3.2930700e+00 1.6921800e-01 8.6264600e-02
3.2930700e+00 1.6921800e-01 8.6264600e-02
3.2737133e+00 1.7357933e-01 1.0037733e-01
3.2535167e+00 1.7693200e-01 1.1472813e-01
3.2324800e+00 1.7927600e-01 1.2931700e-01
3.2106033e+00 1.8061133e-01 1.4414393e-01
3.1878867e+00 1.8093800e-01 1.5920893e-01
3.1643300e+00 1.8025600e-01 1.7451200e-01
3.1643300e+00 1.8025600e-01 1.7451200e-01
3.1398856e+00 1.6800844e-01 1.7260100e-01
3.1135122e+00 1.5735211e-01 1.6506200e-01
3.0852100e+00 1.4828700e-01 1.5189500e-01
3.0549789e+00 1.4081311e-01 1.3310000e-01
3.0228189e+00 1.3493044e-01 1.0867700e-01
2.9887300e+00 1.3063900e-01 7.8626000e-02
2.9887300e+00 1.3063900e-01 7.8626000e-02
2.9577444e+00 1.2993067e-01 5.6079847e-02
2.9289511e+00 1.2876900e-01 3.6899213e-02
2.9023500e+00 1.2715400e-01 2.1084100e-02
2.8779411e+00 1.2508567e-01 8.6345067e-03
2.8557244e+00 1.2256400e-01 -4.4956667e-04
2.8357000e+00 1.1958900e-01 -6.1681200e-03
2.0694200e+00 2.0203500e-01 -1.7383500e-02
2.0909822e+00 1.8514700e-01 -1.4107189e-02
2.1164056e+00 1.6936200e-01 -1.2632989e-02
2.1456900e+00 1.5468000e-01 -1.2960900e-02
2.1788356e+00 1.4110100e-01 -1.5090922e-02
2.2158422e+00 1.2862500e-01 -1.9023056e-02
2.2567100e+00 1.1725200e-01 -2.4757300e-02
2.2567100e+00 1.1725200e-01 -2.4757300e-02
2.2961356e+00 1.1816833e-01 -2.5260640e-02
2.3342022e+00 1.2223167e-01 -2.4549673e-02
2.3709100e+00 1.2944200e-01 -2.2624400e-02
2.4062589e+00 1.3979933e-01 -1.9484820e-02
2.4402489e+00 1.5330367e-01 -1.5130933e-02
2.4728800e+00 1.6995500e-01 -9.5627400e-03
2.4728800e+00 1.6995500e-01 -9.5627400e-03
2.5032033e+00 1.8628311e-01 -6.3089694e-03
2.5344000e+00 1.9922944e-01 -3.2790284e-03
2.5664700e+00 2.0879400e-01 -4.7291700e-04
2.5994133e+00 2.1497678e-01 2.1093649e-03
2.6332300e+00 2.1777778e-01 4.4678172e-03
2.6679200e+00 2.1719700e-01 6.6024400e-03
2.6679200e+00 2.1719700e-01 6.6024400e-03
2.7034167e+00 2.0413678e-01 6.2783133e-03
2.7359000e+00 1.8979344e-01 5.2324667e-03
2.7653700e+00 1.7416700e-01 3.4649000e-03
2.7918267e+00 1.5725744e-01 9.7561333e-04
2.8152700e+00 1.3906478e-01 -2.2353933e-03
2.8357000e+00 1.1958900e-01 -6.1681200e-03
1.7037500e+00 6.1551400e-01 -1.4140700e-02