# vtk DataFile Version 2.0
test
ASCII
DATASET POLYDATA
POINTS 4361 float
3.7039952e+00 6.5935755e+00 1.1863201e+01
3.8044736e+00 6.6621775e+00 1.1731874e+01
3.9074175e+00 6.7307783e+00 1.1602655e+01
4.0128270e+00 6.7993781e+00 1.1475545e+01
4.1207021e+00 6.8679766e+00 1.1350543e+01
4.2310427e+00 6.9365741e+00 1.1227649e+01
4.3438488e+00 7.0051704e+00 1.1106863e+01
4.3438488e+00 7.0051704e+00 1.1106863e+01
4.4620959e+00 7.0759071e+00 1.0990207e+01
4.5872774e+00 7.1458238e+00 1.0883246e+01
4.7193935e+00 7.2149204e+00 1.0785983e+01
4.8584440e+00 7.2831970e+00 1.0698416e+01
5.0044291e+00 7.3506536e+00 1.0620546e+01
5.1573486e+00 7.4172901e+00 1.0552372e+01
5.1573486e+00 7.4172901e+00 1.0552372e+01
5.3191856e+00 7.4806395e+00 1.0503407e+01
5.4835224e+00 7.5404955e+00 1.0467438e+01
5.6503590e+00 7.5968579e+00 1.0444465e+01
5.8196955e+00 7.6497269e+00 1.0434488e+01
5.9915319e+00 7.6991024e+00 1.0437506e+01
6.1658681e+00 7.7449845e+00 1.0453520e+01
6.1658681e+00 7.7449845e+00 1.0453520e+01
6.3387104e+00 7.7863585e+00 1.0476625e+01
6.5114801e+00 7.8246540e+00 1.0503484e+01
6.6841772e+00 7.8598709e+00 1.0534096e+01
6.8568016e+00 7.8920093e+00 1.0568462e+01
7.0293534e+00 7.9210691e+00 1.0606582e+01
7.2018326e+00 7.9470504e+00 1.0648455e+01
7.2018326e+00 7.9470504e+00 1.0648455e+01
7.3746168e+00 7.9705650e+00 1.0690449e+01
7.5483583e+00 7.9914941e+00 1.0728485e+01
7.7230572e+00 8.0098377e+00 1.0762562e+01
7.8987135e+00 8.0255957e+00 1.0792681e+01
8.0753272e+00 8.0387682e+00 1.0818842e+01
8.2528983e+00 8.0493551e+00 1.0841043e+01
8.2528983e+00 8.0493551e+00 1.0841043e+01
8.4332150e+00 8.0570430e+00 1.0854445e+01
8.6119390e+00 8.0619544e+00 1.0854424e+01
8.7890704e+00 8.0640894e+00 1.0840983e+01
8.9646091e+00 8.0634480e+00 1.0814119e+01
9.1385553e+00 8.0600302e+00 1.0773835e+01
9.3109088e+00 8.0538359e+00 1.0720128e+01
9.3109088e+00 8.0538359e+00 1.0720128e+01
9.4758913e+00 8.0448076e+00 1.0647760e+01
9.6335840e+00 8.0344364e+00 1.0564642e+01
9.7839870e+00 8.0227223e+00 1.0470773e+01
9.9271003e+00 8.0096653e+00 1.0366153e+01
1.0062924e+01 7.9952654e+00 1.0250783e+01
1.0191458e+01 7.9795226e+00 1.0124662e+01
1.0191458e+01 7.9795226e+00 1.0124662e+01
1.0311878e+01 7.9665754e+00 9.9927457e+00
1.0429877e+01 7.9529481e+00 9.8588604e+00
1.0545454e+01 7.9386405e+00 9.7230061e+00
1.0658608e+01 7.9236527e+00 9.5851826e+00
1.0769341e+01 7.9079847e+00 9.4453900e+00
1.0877652e+01 7.8916366e+00 9.3036283e+00
1.0877652e+01 7.8916366e+00 9.3036283e+00
1.0780304e+01 7.8264193e+00 9.1618538e+00
1.0683976e+01 7.7601500e+00 9.0198953e+00
1.0588669e+01 7.6928286e+00 8.8777528e+00
1.0494382e+01 7.6244551e+00 8.7354261e+00
1.0401116e+01 7.5550296e+00 8.5929154e+00
1.0308870e+01 7.4845519e+00 8.4502207e+00
1.0308870e+01 7.4845519e+00 8.4502207e+00
1.0218836e+01 7.4162009e+00 8.3047781e+00
1.0133365e+01 7.3464997e+00 8.1576163e+00
1.0052456e+01 7.2754483e+00 8.0087354e+00
9.9761087e+00 7.2030467e+00 7.8581353e+00
9.9043243e+00 7.1292949e+00 7.7058161e+00
9.8371022e+00 7.0541930e+00 7.5517777e+00
9.8371022e+00 7.0541930e+00 7.5517777e+00
9.7769824e+00 6.9771269e+00 7.3950131e+00
9.7258328e+00 6.8979783e+00 7.2372439e+00
9.6836535e+00 6.8167473e+00 7.0784702e+00
9.6504444e+00 6.7334337e+00 6.9186918e+00
9.6262056e+00 6.6480377e+00 6.7579088e+00
9.6109371e+00 6.5605592e+00 6.5961211e+00
9.6109371e+00 6.5605592e+00 6.5961211e+00
9.6077601e+00 6.4710795e+00 6.4346289e+00
9.6148207e+00 6.3804598e+00 6.2752405e+00
9.6321188e+00 6.2887003e+00 6.1179559e+00
9.6596543e+00 6.1958009e+00 5.9627752e+00
9.6974274e+00 6.1017615e+00 5.8096983e+00
9.7454379e+00 6.0065823e+00 5.6587253e+00
9.7454379e+00 6.0065823e+00 5.6587253e+00
9.8016268e+00 5.9111101e+00 5.5117422e+00
9.8633436e+00 5.8150877e+00 5.3679194e+00
9.9305883e+00 5.7185152e+00 5.2272569e+00
1.0003361e+01 5.6213925e+00 5.0897548e+00
1.0081661e+01 5.5237196e+00 4.9554129e+00
1.0165490e+01 5.4254966e+00 4.8242314e+00
1.0165490e+01 5.4254966e+00 4.8242314e+00
1.0252260e+01 5.3270098e+00 4.6956978e+00
1.0340577e+01 5.2275130e+00 4.5691179e+00
1.0430443e+01 5.1270062e+00 4.4444916e+00
1.0521856e+01 5.0254894e+00 4.3218189e+00
1.0614818e+01 4.9229626e+00 4.2010999e+00
1.0709327e+01 4.8194257e+00 4.0823344e+00
1.0709327e+01 4.8194257e+00 4.0823344e+00
1.0803627e+01 4.7141211e+00 3.9650171e+00
1.0896183e+01 4.6066241e+00 3.8483922e+00
1.0986994e+01 4.4969349e+00 3.7324595e+00
1.1076062e+01 4.3850535e+00 3.6172192e+00
1.1163386e+01 4.2709798e+00 3.5026711e+00
1.1248966e+01 4.1547138e+00 3.3888154e+00
1.1248966e+01 4.1547138e+00 3.3888154e+00
1.1331165e+01 4.0356184e+00 3.2748279e+00
1.1407463e+01 3.9133842e+00 3.1608618e+00
1.1477859e+01 3.7880112e+00 3.0469171e+00
1.1542353e+01 3.6594994e+00 2.9329939e+00
1.1600946e+01 3.5278488e+00 2.8190920e+00
1.1653637e+01 3.3930594e+00 2.7052116e+00
1.1653637e+01 3.3930594e+00 2.7052116e+00
1.1698177e+01 3.2542343e+00 2.5915895e+00
1.1732643e+01 3.1133508e+00 2.4788686e+00
1.1757036e+01 2.9704089e+00 2.3670489e+00
1.1771354e+01 2.8254086e+00 2.2561305e+00
1.1775600e+01 2.6783500e+00 2.1461132e+00
1.1769771e+01 2.5292330e+00 2.0369972e+00
1.1769771e+01 2.5292330e+00 2.0369972e+00
1.1751568e+01 2.3803623e+00 1.9292183e+00
1.1724566e+01 2.2322942e+00 1.8236715e+00
1.1688762e+01 2.0850288e+00 1.7203567e+00
1.1644159e+01 1.9385659e+00 1.6192740e+00
1.1590756e+01 1.7929057e+00 1.5204234e+00
1.1528552e+01 1.6480480e+00 1.4238048e+00
1.1528552e+01 1.6480480e+00 1.4238048e+00
1.1459261e+01 1.5053510e+00 1.3298911e+00
1.1385642e+01 1.3639413e+00 1.2378332e+00
1.1307693e+01 1.2238189e+00 1.1476311e+00
1.1225417e+01 1.0849839e+00 1.0592847e+00
1.1138811e+01 9.4743617e-01 9.7279406e-01
1.1047877e+01 8.1117580e-01 8.8815918e-01
1.1047877e+01 8.1117580e-01 8.8815918e-01
1.0955187e+01 6.7535842e-01 8.0503641e-01
1.0861402e+01 5.3995950e-01 7.2249236e-01
1.0766523e+01 4.0497904e-01 6.4052705e-01
1.0670548e+01 2.7041704e-01 5.5914046e-01
1.0573479e+01 1.3627350e-01 4.7833259e-01
1.0475315e+01 2.5484200e-03 3.9810345e-01
1.5742340e+00 5.3920361e+00 1.1671982e+01
1.5481662e+00 5.3541168e+00 1.1485460e+01
1.5239255e+00 5.3148622e+00 1.1299030e+01
1.5015118e+00 5.2742725e+00 1.1112691e+01
1.4809252e+00 5.2323476e+00 1.0926444e+01
1.4621657e+00 5.1890876e+00 1.0740289e+01
1.4452332e+00 5.1444923e+00 1.0554225e+01
1.4452332e+00 5.1444923e+00 1.0554225e+01
1.4337439e+00 5.1015114e+00 1.0366776e+01
1.4299207e+00 5.0565504e+00 1.0180204e+01
1.4337636e+00 5.0096091e+00 9.9945108e+00
1.4452725e+00 4.9606876e+00 9.8096951e+00
1.4644475e+00 4.9097858e+00 9.6257572e+00
1.4912886e+00 4.8569039e+00 9.4426971e+00
1.4912886e+00 4.8569039e+00 9.4426971e+00
1.5312851e+00 4.8004636e+00 9.2620525e+00
1.5825367e+00 4.7415093e+00 9.0870256e+00
1.6450436e+00 4.6800410e+00 8.9176164e+00
1.7188056e+00 4.6160585e+00 8.7538248e+00
1.8038228e+00 4.5495620e+00 8.5956509e+00
1.9000952e+00 4.4805515e+00 8.4430946e+00
1.9000952e+00 4.4805515e+00 8.4430946e+00
2.0080350e+00 4.4094369e+00 8.3002899e+00
2.1229171e+00 4.3370152e+00 8.1652460e+00
2.2447416e+00 4.2632865e+00 8.0379630e+00
2.3735085e+00 4.1882507e+00 7.9184407e+00
2.5092177e+00 4.1119079e+00 7.8066794e+00
2.6518693e+00 4.0342580e+00 7.7026788e+00
2.6518693e+00 4.0342580e+00 7.7026788e+00
2.7961002e+00 3.9560409e+00 7.6033365e+00
2.9413675e+00 3.8763464e+00 7.5069719e+00
3.0876712e+00 3.7951746e+00 7.4135849e+00
3.2350113e+00 3.7125254e+00 7.3231755e+00
3.3833877e+00 3.6283988e+00 7.2357438e+00
3.5328005e+00 3.5427949e+00 7.1512897e+00
3.5328005e+00 3.5427949e+00 7.1512897e+00
3.6822575e+00 3.4552201e+00 7.0687739e+00
3.8293211e+00 3.3648979e+00 6.9852898e+00
3.9739912e+00 3.2718284e+00 6.9008377e+00
4.1162679e+00 3.1760114e+00 6.8154173e+00
4.2561511e+00 3.0774470e+00 6.7290289e+00
4.3936409e+00 2.9761351e+00 6.6416722e+00
4.3936409e+00 2.9761351e+00 6.6416722e+00
4.5272475e+00 2.8711675e+00 6.5508698e+00
4.6528994e+00 2.7623444e+00 6.4555387e+00
4.7705968e+00 2.6496657e+00 6.3556787e+00
4.8803395e+00 2.5331316e+00 6.2512899e+00
4.9821277e+00 2.4127419e+00 6.1423723e+00
5.0759612e+00 2.2884968e+00 6.0289260e+00
5.0759612e+00 2.2884968e+00 6.0289260e+00
5.1557660e+00 2.1597405e+00 5.9086068e+00
5.2227475e+00 2.0300217e+00 5.7845074e+00
5.2769058e+00 1.8993404e+00 5.6566281e+00
5.3182409e+00 1.7676967e+00 5.5249686e+00
5.3467527e+00 1.6350904e+00 5.3895291e+00
5.3624413e+00 1.5015217e+00 5.2503095e+00
5.3624413e+00 1.5015217e+00 5.2503095e+00
5.3656761e+00 1.3704429e+00 5.1093147e+00
5.3612524e+00 1.2407333e+00 4.9678863e+00
5.3491702e+00 1.1123929e+00 4.8260242e+00
5.3294296e+00 9.8542166e-01 4.6837284e+00
5.3020304e+00 8.5981960e-01 4.5409990e+00
5.2669728e+00 7.3558672e-01 4.3978359e+00
5.2669728e+00 7.3558672e-01 4.3978359e+00
5.2284024e+00 6.1190436e-01 4.2559422e+00
5.1879016e+00 4.8869836e-01 4.1141650e+00
5.1454703e+00 3.6596872e-01 3.9725042e+00
5.1011086e+00 2.4371545e-01 3.8309598e+00
5.0548164e+00 1.2193855e-01 3.6895319e+00
5.0065937e+00 6.3800800e-04 3.5482204e+00
3.5629500e-01 5.1692424e+00 1.3915010e+01
4.1198312e-01 5.2731969e+00 1.3757971e+01
4.8080281e-01 5.3778998e+00 1.3610964e+01
5.6275407e-01 5.4833512e+00 1.3473988e+01
6.5783689e-01 5.5895510e+00 1.3347043e+01
7.6605128e-01 5.6964992e+00 1.3230131e+01
8.8739724e-01 5.8041959e+00 1.3123249e+01
8.8739724e-01 5.8041959e+00 1.3123249e+01
1.0425611e+00 5.9040402e+00 1.3060213e+01
1.2045657e+00 5.9946500e+00 1.3012632e+01
1.3734110e+00 6.0760254e+00 1.2980507e+01
1.5490970e+00 6.1481662e+00 1.2963838e+01
1.7316236e+00 6.2110726e+00 1.2962624e+01
1.9209910e+00 6.2647444e+00 1.2976866e+01
1.9209910e+00 6.2647444e+00 1.2976866e+01
2.1117810e+00 6.3131998e+00 1.2990414e+01
2.2995135e+00 6.3576473e+00 1.2985252e+01
2.4841888e+00 6.3980869e+00 1.2961382e+01
2.6658067e+00 6.4345187e+00 1.2918801e+01
2.8443672e+00 6.4669427e+00 1.2857512e+01
3.0198705e+00 6.4953588e+00 1.2777513e+01
3.0198705e+00 6.4953588e+00 1.2777513e+01
3.1652267e+00 6.5185026e+00 1.2650616e+01
3.2980488e+00 6.5389366e+00 1.2513525e+01
3.4183367e+00 6.5566609e+00 1.2366237e+01
3.5260904e+00 6.5716755e+00 1.2208754e+01
[...]
POINT_DATA 4361
VECTORS U float
4.0709300e-01 1.3072700e-01 -4.0567100e-03
4.1173578e-01 1.2783289e-01 -1.6894322e-03
4.1620878e-01 1.2461489e-01 4.6672444e-04
4.2051200e-01 1.2107300e-01 2.4117600e-03
4.2464544e-01 1.1720722e-01 4.1456744e-03
4.2860911e-01 1.1301756e-01 5.6684678e-03
4.3240300e-01 1.0850400e-01 6.9801400e-03
4.3240300e-01 1.0850400e-01 6.9801400e-03
4.3546022e-01 1.0493294e-01 8.1986933e-03
4.3826156e-01 1.0100958e-01 8.9883967e-03
4.4080700e-01 9.6733900e-02 9.3492500e-03
4.4309656e-01 9.2105911e-02 9.2812533e-03
4.4513022e-01 8.7125611e-02 8.7844067e-03
4.4690800e-01 8.1793000e-02 7.8587100e-03
4.4690800e-01 8.1793000e-02 7.8587100e-03
4.4910422e-01 7.5873822e-02 7.5958211e-03
4.5105389e-01 7.0324122e-02 7.5558511e-03
4.5275700e-01 6.5143900e-02 7.7388000e-03
4.5421356e-01 6.0333156e-02 8.1446678e-03
4.5542356e-01 5.5891889e-02 8.7734544e-03
4.5638700e-01 5.1820100e-02 9.6251600e-03
4.5638700e-01 5.1820100e-02 9.6251600e-03
4.5728033e-01 4.7846856e-02 9.3020033e-03
4.5804567e-01 4.4187056e-02 9.0568600e-03
4.5868300e-01 4.0840700e-02 8.8897300e-03
4.5919233e-01 3.7807789e-02 8.8006133e-03
4.5957367e-01 3.5088322e-02 8.7895100e-03
4.5982700e-01 3.2682300e-02 8.8564200e-03
4.5982700e-01 3.2682300e-02 8.8564200e-03
4.5993467e-01 3.0432589e-02 9.2053000e-03
4.5999867e-01 2.8353689e-02 9.6476933e-03
4.6001900e-01 2.6445600e-02 1.0183600e-02
4.5999567e-01 2.4708322e-02 1.0813020e-02
4.5992867e-01 2.3141856e-02 1.1535953e-02
4.5981800e-01 2.1746200e-02 1.2352400e-02
4.5981800e-01 2.1746200e-02 1.2352400e-02
4.5974678e-01 2.0308311e-02 1.3091000e-02
4.5964778e-01 1.9107811e-02 1.3602000e-02
4.5952100e-01 1.8144700e-02 1.3885400e-02
4.5936644e-01 1.7418978e-02 1.3941200e-02
4.5918411e-01 1.6930644e-02 1.3769400e-02
4.5897400e-01 1.6679700e-02 1.3370000e-02
4.5897400e-01 1.6679700e-02 1.3370000e-02
4.5888556e-01 1.6749944e-02 1.3213752e-02
4.5833756e-01 1.7106244e-02 1.2560719e-02
4.5733000e-01 1.7748600e-02 1.1410900e-02
4.5586289e-01 1.8677011e-02 9.7642956e-03
4.5393622e-01 1.9891478e-02 7.6209056e-03
4.5155000e-01 2.1392000e-02 4.9807300e-03
4.5155000e-01 2.1392000e-02 4.9807300e-03
4.4735933e-01 2.6121478e-02 7.2066667e-04
4.4338600e-01 3.0470378e-02 -3.1906067e-03
4.3963000e-01 3.4438700e-02 -6.7530900e-03
4.3609133e-01 3.8026444e-02 -9.9667833e-03
4.3277000e-01 4.1233611e-02 -1.2831687e-02
4.2966600e-01 4.4060200e-02 -1.5347800e-02
4.2966600e-01 4.4060200e-02 -1.5347800e-02
4.2717978e-01 4.2490856e-02 -1.2882378e-02
4.2437144e-01 4.0384056e-02 -9.9918411e-03
4.2124100e-01 3.7739800e-02 -6.6761900e-03
4.1778844e-01 3.4558089e-02 -2.9354244e-03
4.1401378e-01 3.0838922e-02 1.2304556e-03
4.0991700e-01 2.6582300e-02 5.8214500e-03
4.0991700e-01 2.6582300e-02 5.8214500e-03
4.0551644e-01 2.5503278e-02 9.0008167e-03
4.0090978e-01 2.4632711e-02 1.2019867e-02
3.9609700e-01 2.3970600e-02 1.4878600e-02
3.9107811e-01 2.3516944e-02 1.7577017e-02
3.8585311e-01 2.3271744e-02 2.0115117e-02
3.8042200e-01 2.3235000e-02 2.2492900e-02
3.8042200e-01 2.3235000e-02 2.2492900e-02
3.7501944e-01 2.3519656e-02 2.4425833e-02
3.6928711e-01 2.3761922e-02 2.6102833e-02
3.6322500e-01 2.3961800e-02 2.7523900e-02
3.5683311e-01 2.4119289e-02 2.8689033e-02
3.5011144e-01 2.4234389e-02 2.9598233e-02
3.4306000e-01 2.4307100e-02 3.0251500e-02
3.4306000e-01 2.4307100e-02 3.0251500e-02
3.3572500e-01 2.4289022e-02 3.0460656e-02
3.2874833e-01 2.4108589e-02 3.0386756e-02
3.2213000e-01 2.3765800e-02 3.0029800e-02
3.1587000e-01 2.3260656e-02 2.9389789e-02
3.0996833e-01 2.2593156e-02 2.8466722e-02
3.0442500e-01 2.1763300e-02 2.7260600e-02
3.0442500e-01 2.1763300e-02 2.7260600e-02
2.9891622e-01 2.0743067e-02 2.5967078e-02
2.9356356e-01 1.9565867e-02 2.4656444e-02
2.8836700e-01 1.8231700e-02 2.3328700e-02
2.8332656e-01 1.6740567e-02 2.1983844e-02
2.7844222e-01 1.5092467e-02 2.0621878e-02
2.7371400e-01 1.3287400e-02 1.9242800e-02
2.7371400e-01 1.3287400e-02 1.9242800e-02
2.6906067e-01 1.1641048e-02 1.7701404e-02
2.6444133e-01 9.9930211e-03 1.6117804e-02
2.5985600e-01 8.3433200e-03 1.4492000e-02
2.5530467e-01 6.6919444e-03 1.2823991e-02
2.5078733e-01 5.0388944e-03 1.1113778e-02
2.4630400e-01 3.3841700e-03 9.3613600e-03
2.4630400e-01 3.3841700e-03 9.3613600e-03
2.4161489e-01 1.4081011e-03 7.7848859e-03
2.3670356e-01 -6.5631222e-04 6.1592626e-03
2.3157000e-01 -2.8090700e-03 4.4844900e-03
2.2621422e-01 -5.0501722e-03 2.7605682e-03
2.2063622e-01 -7.3796189e-03 9.8749722e-04
2.1483600e-01 -9.7974100e-03 -8.3472300e-04
2.1483600e-01 -9.7974100e-03 -8.3472300e-04
2.0852933e-01 -1.2211550e-02 -2.8417517e-03
2.0170200e-01 -1.4578147e-02 -4.7982140e-03
1.9435400e-01 -1.6897200e-02 -6.7041100e-03
1.8648533e-01 -1.9168710e-02 -8.5594397e-03
1.7809600e-01 -2.1392677e-02 -1.0364203e-02
1.6918600e-01 -2.3569100e-02 -1.2118400e-02
1.6918600e-01 -2.3569100e-02 -1.2118400e-02
1.6027844e-01 -2.5747411e-02 -1.3175033e-02
1.5118511e-01 -2.7520011e-02 -1.3970533e-02
1.4190600e-01 -2.8886900e-02 -1.4504900e-02
1.3244111e-01 -2.9848078e-02 -1.4778133e-02
1.2279044e-01 -3.0403544e-02 -1.4790233e-02
1.1295400e-01 -3.0553300e-02 -1.4541200e-02
1.1295400e-01 -3.0553300e-02 -1.4541200e-02
1.0312557e-01 -2.9514589e-02 -1.4724422e-02
9.3800833e-02 -2.8181789e-02 -1.4771322e-02
8.4979800e-02 -2.6554900e-02 -1.4681900e-02
7.6662467e-02 -2.4633922e-02 -1.4456156e-02
6.8848833e-02 -2.2418856e-02 -1.4094089e-02
6.1538900e-02 -1.9909700e-02 -1.3595700e-02
6.1538900e-02 -1.9909700e-02 -1.3595700e-02
5.4216322e-02 -1.7230859e-02 -1.2932757e-02
4.7334056e-02 -1.4625326e-02 -1.2147057e-02
4.0892100e-02 -1.2093100e-02 -1.1238600e-02
3.4890456e-02 -9.6341822e-03 -1.0207387e-02
2.9329122e-02 -7.2485722e-03 -9.0534167e-03
2.4208100e-02 -4.9362700e-03 -7.7766900e-03
2.4208100e-02 -4.9362700e-03 -7.7766900e-03
1.9846641e-02 -3.3792322e-03 -6.1945300e-03
1.5732808e-02 -1.9460302e-03 -4.6184800e-03
1.1866600e-02 -6.3666400e-04 -3.0485400e-03
8.2480178e-03 5.4886644e-04 -1.4847100e-03
4.8770611e-03 1.6105611e-03 7.3010000e-05
1.7537300e-03 2.5484200e-03 1.6246200e-03
3.5611400e-01 1.8052400e-01 2.7426600e-02
3.5263311e-01 1.7883589e-01 2.8425778e-02
3.4867911e-01 1.7639889e-01 2.9597111e-02
3.4425200e-01 1.7321300e-01 3.0940600e-02
3.3935178e-01 1.6927822e-01 3.2456244e-02
3.3397844e-01 1.6459456e-01 3.4144044e-02
3.2813200e-01 1.5916200e-01 3.6004000e-02
3.2813200e-01 1.5916200e-01 3.6004000e-02
3.2323656e-01 1.5654833e-01 3.7082344e-02
3.1804556e-01 1.5380300e-01 3.7983411e-02
3.1255900e-01 1.5092600e-01 3.8707200e-02
3.0677689e-01 1.4791733e-01 3.9253711e-02
3.0069922e-01 1.4477700e-01 3.9622944e-02
2.9432600e-01 1.4150500e-01 3.9814900e-02
2.9432600e-01 1.4150500e-01 3.9814900e-02
2.8836278e-01 1.3747489e-01 3.9974489e-02
2.8201944e-01 1.3312356e-01 3.9704322e-02
2.7529600e-01 1.2845100e-01 3.9004400e-02
2.6819244e-01 1.2345722e-01 3.7874722e-02
2.6070878e-01 1.1814222e-01 3.6315289e-02
2.5284500e-01 1.1250600e-01 3.4326100e-02
2.5284500e-01 1.1250600e-01 3.4326100e-02
2.4575544e-01 1.0632297e-01 3.2111456e-02
2.3949711e-01 1.0013137e-01 3.0512022e-02
2.3407000e-01 9.3931200e-02 2.9527800e-02
2.2947411e-01 8.7722467e-02 2.9158789e-02
2.2570944e-01 8.1505167e-02 2.9404989e-02
2.2277600e-01 7.5279300e-02 3.0266400e-02
2.2277600e-01 7.5279300e-02 3.0266400e-02
2.1909478e-01 6.9477244e-02 3.0292811e-02
2.1535944e-01 6.3845544e-02 3.0144144e-02
2.1157000e-01 5.8384200e-02 2.9820400e-02
2.0772644e-01 5.3093211e-02 2.9321578e-02
2.0382878e-01 4.7972578e-02 2.8647678e-02
1.9987700e-01 4.3022300e-02 2.7798700e-02
1.9987700e-01 4.3022300e-02 2.7798700e-02
1.9647500e-01 3.8148011e-02 2.7807156e-02
1.9289200e-01 3.3421144e-02 2.7601622e-02
1.8912800e-01 2.8841700e-02 2.7182100e-02
1.8518300e-01 2.4409678e-02 2.6548589e-02
1.8105700e-01 2.0125078e-02 2.5701089e-02
1.7675000e-01 1.5987900e-02 2.4639600e-02
1.7675000e-01 1.5987900e-02 2.4639600e-02
1.7210978e-01 1.2155079e-02 2.3011244e-02
1.6693944e-01 8.4856222e-03 2.1192044e-02
1.6123900e-01 4.9795300e-03 1.9182000e-02
1.5500844e-01 1.6368022e-03 1.6981111e-02
1.4824778e-01 -1.5425611e-03 1.4589378e-02
1.4095700e-01 -4.5585600e-03 1.2006800e-02
1.4095700e-01 -4.5585600e-03 1.2006800e-02
1.3205503e-01 -7.4706778e-03 9.2692818e-03
1.2289137e-01 -9.7880578e-03 6.8189884e-03
1.1346600e-01 -1.1510700e-02 4.6559200e-03
1.0377893e-01 -1.2638604e-02 2.7800764e-03
9.3830167e-02 -1.3171771e-02 1.1914578e-03
8.3619700e-02 -1.3110200e-02 -1.0993600e-04
8.3619700e-02 -1.3110200e-02 -1.0993600e-04
7.4049122e-02 -1.1948596e-02 -1.4832200e-03
6.4943622e-02 -1.0610736e-02 -2.5812847e-03
5.6303200e-02 -9.0966200e-03 -3.4041300e-03
4.8127856e-02 -7.4062489e-03 -3.9517560e-03
4.0417589e-02 -5.5396222e-03 -4.2241627e-03
3.3172400e-02 -3.4967400e-03 -4.2213500e-03
3.3172400e-02 -3.4967400e-03 -4.2213500e-03
2.6824168e-02 -2.4417442e-03 -3.3762367e-03
2.0836668e-02 -1.5330969e-03 -2.4760833e-03
1.5209900e-02 -7.7079800e-04 -1.5208900e-03
9.9438638e-03 -1.5484756e-04 -5.1065667e-04
5.0385594e-03 3.1475444e-04 5.5461667e-04
4.9398700e-04 6.3800800e-04 1.6749300e-03
3.5629500e-01 1.9953800e-01 -4.7733500e-03
3.6128567e-01 2.0041833e-01 -2.4249878e-03
3.6604500e-01 2.0061167e-01 -1.8849111e-04
3.7057300e-01 2.0011800e-01 1.9361400e-03
3.7486967e-01 1.9893733e-01 3.9489056e-03
3.7893500e-01 1.9706967e-01 5.8498056e-03
3.8276900e-01 1.9451500e-01 7.6388400e-03
3.8276900e-01 1.9451500e-01 7.6388400e-03
3.8613922e-01 1.8989533e-01 8.6636089e-03
3.8926322e-01 1.8482967e-01 9.0646356e-03
3.9214100e-01 1.7931800e-01 8.8419200e-03
3.9477256e-01 1.7336033e-01 7.9954622e-03
3.9715789e-01 1.6695667e-01 6.5252622e-03
3.9929700e-01 1.6010700e-01 4.4313200e-03
3.9929700e-01 1.6010700e-01 4.4313200e-03
4.0130522e-01 1.5280022e-01 2.6109750e-03
4.0288756e-01 1.4634789e-01 9.3428333e-04
4.0404400e-01 1.4075000e-01 -5.9875500e-04
4.0477456e-01 1.3600656e-01 -1.9881400e-03
4.0507922e-01 1.3211756e-01 -3.2338717e-03
4.0495800e-01 1.2908300e-01 -4.3359500e-03
4.0495800e-01 1.2908300e-01 -4.3359500e-03
4.0447189e-01 1.2877478e-01 -4.9241378e-03
4.0432256e-01 1.2869944e-01 -5.2584344e-03
4.0451000e-01 1.2885700e-01 -5.3388400e-03
4.0503422e-01 1.2924744e-01 -5.1653544e-03
4.0589522e-01 1.2987078e-01 -4.7379778e-03
4.0709300e-01 1.3072700e-01 -4.0567100e-03
3.4299200e-01 1.9356500e-01 1.0549300e-02
3.4621511e-01 1.9282122e-01 1.4682322e-02
3.4902378e-01 1.9150556e-01 1.8287289e-02
3.5141800e-01 1.8961800e-01 2.1364200e-02
3.5339778e-01 1.8715856e-01 2.3913056e-02
3.5496311e-01 1.8412722e-01 2.5933856e-02
3.5611400e-01 1.8052400e-01 2.7426600e-02
4.2966600e-01 4.4060200e-02 -1.5347800e-02
4.2661500e-01 3.9055344e-02 -1.4768733e-02
4.2349700e-01 3.4297411e-02 -1.4077300e-02
4.2031200e-01 2.9786400e-02 -1.3273500e-02
4.1706000e-01 2.5522311e-02 -1.2357333e-02
4.1374100e-01 2.1505144e-02 -1.1328800e-02
4.1035500e-01 1.7734900e-02 -1.0187900e-02
4.1035500e-01 1.7734900e-02 -1.0187900e-02
4.0851033e-01 1.5423554e-02 -1.0027953e-02
4.0617800e-01 1.3254788e-02 -9.3988033e-03
4.0335800e-01 1.1228600e-02 -8.3004500e-03
4.0005033e-01 9.3449911e-03 -6.7328933e-03
3.9625500e-01 7.6039611e-03 -4.6961333e-03
3.9197200e-01 6.0055100e-03 -2.1901700e-03
3.9197200e-01 6.0055100e-03 -2.1901700e-03
3.8727933e-01 4.1199967e-03 -5.7620000e-05
3.8242133e-01 2.4872500e-03 1.9307133e-03
3.7739800e-01 1.1072700e-03 3.7748300e-03
3.7220933e-01 -1.9943333e-05 5.4747300e-03
3.6685533e-01 -8.9439000e-04 7.0304133e-03
3.6133600e-01 -1.5160700e-03 8.4418800e-03
3.6133600e-01 -1.5160700e-03 8.4418800e-03
3.5326022e-01 -2.2265567e-03 9.9031444e-03
3.4493822e-01 -2.7839467e-03 1.0976251e-02
3.3637000e-01 -3.1882400e-03 1.1661200e-02
3.2755556e-01 -3.4394367e-03 1.1957991e-02
3.1849489e-01 -3.5375367e-03 1.1866624e-02
3.0918800e-01 -3.4825400e-03 1.1387100e-02
3.0918800e-01 -3.4825400e-03 1.1387100e-02
3.0134878e-01 -2.8190561e-03 1.0961058e-02
2.9355811e-01 -1.9779978e-03 1.0415578e-02
2.8581600e-01 -9.5936500e-04 9.7506600e-03
2.7812244e-01 2.3684222e-04 8.9663044e-03
2.7047744e-01 1.6106239e-03 8.0625111e-03
2.6288100e-01 3.1619800e-03 7.0392800e-03
2.6288100e-01 3.1619800e-03 7.0392800e-03
2.5518778e-01 4.4121278e-03 5.6874796e-03
2.4738044e-01 5.7907578e-03 4.3462129e-03
2.3945900e-01 7.2978700e-03 3.0154800e-03
2.3142344e-01 8.9334644e-03 1.6952809e-03
2.2327378e-01 1.0697541e-02 3.8561556e-04
2.1501000e-01 1.2590100e-02 -9.1351600e-04
2.1501000e-01 1.2590100e-02 -9.1351600e-04
2.0750733e-01 1.4162500e-02 -2.1563967e-03
1.9947567e-01 1.5866733e-02 -3.1727180e-03
1.9091500e-01 1.7702800e-02 -3.9624800e-03
1.8182533e-01 1.9670700e-02 -4.5256827e-03
1.7220667e-01 2.1770433e-02 -4.8623260e-03
1.6205900e-01 2.4002000e-02 -4.9724100e-03
1.6205900e-01 2.4002000e-02 -4.9724100e-03
1.5009422e-01 2.6904811e-02 -4.2434104e-03
1.3867922e-01 2.9165711e-02 -3.4500838e-03
1.2781400e-01 3.0784700e-02 -2.5924300e-03
1.1749856e-01 3.1761778e-02 -1.6704491e-03
1.0773289e-01 3.2096944e-02 -6.8414111e-04
9.8517000e-02 3.1790200e-02 3.6649400e-04
9.8517000e-02 3.1790200e-02 3.6649400e-04
8.8829444e-02 3.0641889e-02 1.3572089e-03
7.9819744e-02 2.9181522e-02 2.1809542e-03
7.1487900e-02 2.7409100e-02 2.8377300e-03
6.3833911e-02 2.5324622e-02 3.3275362e-03
5.6857778e-02 2.2928089e-02 3.6503729e-03
5.0559500e-02 2.0219500e-02 3.8062400e-03
5.0559500e-02 2.0219500e-02 3.8062400e-03
4.4757278e-02 1.7726892e-02 4.1605444e-03
3.9217778e-02 1.5298892e-02 4.5094078e-03
3.3941000e-02 1.2935500e-02 4.8528300e-03
2.8926944e-02 1.0636716e-02 5.1908111e-03
2.4175611e-02 8.4025389e-03 5.5233511e-03
1.9687000e-02 6.2329700e-03 5.8504500e-03
1.9687000e-02 6.2329700e-03 5.8504500e-03
1.7050779e-02 5.2855311e-03 4.7572882e-03
1.4385412e-02 4.1344444e-03 3.7296949e-03
1.1690900e-02 2.7797100e-03 2.7676700e-03
8.9672422e-03 1.2213278e-03 1.8712136e-03
6.2144389e-03 -5.4070222e-04 1.0403256e-03
3.4324900e-03 -2.5063800e-03 2.7500600e-04
1.3743500e+00 1.0167300e-01 3.5899900e-02
1.3723756e+00 9.4320733e-02 3.8326289e-02
1.3701889e+00 8.7155000e-02 4.0689922e-02
1.3677900e+00 8.0175800e-02 4.2990800e-02
1.3651789e+00 7.3383133e-02 4.5228922e-02
1.3623556e+00 6.6777000e-02 4.7404289e-02
1.3593200e+00 6.0357400e-02 4.9516900e-02
1.3593200e+00 6.0357400e-02 4.9516900e-02
1.3566622e+00 5.6115567e-02 5.0769411e-02
1.3539956e+00 5.3056000e-02 5.1948544e-02
1.3513200e+00 5.1178700e-02 5.3054300e-02
1.3486356e+00 5.0483667e-02 5.4086678e-02
1.3459422e+00 5.0970900e-02 5.5045678e-02
1.3432400e+00 5.2640400e-02 5.5931300e-02
1.3432400e+00 5.2640400e-02 5.5931300e-02
1.3403400e+00 5.4142089e-02 5.6754978e-02
1.3369933e+00 5.5782622e-02 5.7659444e-02
1.3332000e+00 5.7562000e-02 5.8644700e-02
1.3289600e+00 5.9480222e-02 5.9710744e-02
1.3242733e+00 6.1537289e-02 6.0857578e-02
1.3191400e+00 6.3733200e-02 6.2085200e-02
1.3191400e+00 6.3733200e-02 6.2085200e-02
1.3123144e+00 6.6064633e-02 6.4061033e-02
1.3058378e+00 6.7316000e-02 6.5967800e-02
1.2997100e+00 6.7487300e-02 6.7805500e-02
1.2939311e+00 6.6578533e-02 6.9574133e-02
1.2885011e+00 6.4589700e-02 7.1273700e-02
1.2834200e+00 6.1520800e-02 7.2904200e-02
1.2834200e+00 6.1520800e-02 7.2904200e-02
1.2794789e+00 5.8065000e-02 7.3681678e-02
1.2757489e+00 5.4429767e-02 7.3918878e-02
1.2722300e+00 5.0615100e-02 7.3615800e-02
1.2689222e+00 4.6621000e-02 7.2772444e-02
1.2658256e+00 4.2447467e-02 7.1388811e-02
1.2629400e+00 3.8094500e-02 6.9464900e-02
1.2629400e+00 3.8094500e-02 6.9464900e-02
1.2568867e+00 4.1782056e-02 6.9851800e-02
1.2503700e+00 4.5268756e-02 6.9889167e-02
1.2433900e+00 4.8554600e-02 6.9577000e-02
1.2359467e+00 5.1639589e-02 6.8915300e-02
1.2280400e+00 5.4523722e-02 6.7904067e-02
1.2196700e+00 5.7207000e-02 6.6543300e-02
1.2196700e+00 5.7207000e-02 6.6543300e-02
1.2118156e+00 5.8701789e-02 6.3935456e-02
1.2046022e+00 5.9334556e-02 6.1157289e-02
1.1980300e+00 5.9105300e-02 5.8208800e-02
1.1920989e+00 5.8014022e-02 5.5089989e-02
1.1868089e+00 5.6060722e-02 5.1800856e-02
1.1821600e+00 5.3245400e-02 4.8341400e-02
1.1821600e+00 5.3245400e-02 4.8341400e-02
1.1783189e+00 4.9716556e-02 4.6320344e-02
1.1741156e+00 4.6035222e-02 4.4115611e-02
1.1695500e+00 4.2201400e-02 4.1727200e-02
1.1646222e+00 3.8215089e-02 3.9155111e-02
1.1593322e+00 3.4076289e-02 3.6399344e-02
1.1536800e+00 2.9785000e-02 3.3459900e-02
1.1536800e+00 2.9785000e-02 3.3459900e-02
1.1465856e+00 2.5467500e-02 2.9513167e-02
1.1386789e+00 2.2087900e-02 2.5871967e-02
1.1299600e+00 1.9646200e-02 2.2536300e-02
1.1204289e+00 1.8142400e-02 1.9506167e-02
1.1100856e+00 1.7576500e-02 1.6781567e-02
1.0989300e+00 1.7948500e-02 1.4362500e-02
1.0989300e+00 1.7948500e-02 1.4362500e-02
1.0873133e+00 2.0553044e-02 1.3212133e-02
1.0767800e+00 2.3174678e-02 1.2347367e-02
1.0673300e+00 2.5813400e-02 1.1768200e-02
1.0589633e+00 2.8469211e-02 1.1474633e-02
1.0516800e+00 3.1142111e-02 1.1466667e-02
1.0454800e+00 3.3832100e-02 1.1744300e-02
1.0637700e+00 4.5428600e-02 5.0010700e-03
1.0624522e+00 4.2107433e-02 5.0548944e-03
1.0604422e+00 3.9341633e-02 5.5367378e-03
1.0577400e+00 3.7131200e-02 6.4466000e-03
1.0543456e+00 3.5476133e-02 7.7844811e-03
1.0502589e+00 3.4376433e-02 9.5503811e-03
1.0454800e+00 3.3832100e-02 1.1744300e-02
1.3077400e+00 1.1190900e-01 3.3846300e-02
1.3038322e+00 1.0879802e-01 3.1024622e-02
1.2999589e+00 1.0565069e-01 2.8082056e-02
1.2961200e+00 1.0246700e-01 2.5018600e-02
1.2923156e+00 9.9246956e-02 2.1834256e-02
1.2885456e+00 9.5990556e-02 1.8529022e-02
1.2848100e+00 9.2697800e-02 1.5102900e-02
1.2848100e+00 9.2697800e-02 1.5102900e-02
1.2813378e+00 8.8759244e-02 1.1830133e-02
1.2779278e+00 8.5101844e-02 9.4325100e-03
1.2745800e+00 8.1725600e-02 7.9100300e-03
1.2712944e+00 7.8630511e-02 7.2626933e-03
1.2680711e+00 7.5816578e-02 7.4905000e-03
1.2649100e+00 7.3283800e-02 8.5934500e-03
1.2649100e+00 7.3283800e-02 8.5934500e-03
1.2597711e+00 7.1880056e-02 1.2899117e-02
1.2542078e+00 7.0834456e-02 1.7299733e-02
1.2482200e+00 7.0147000e-02 2.1795300e-02
1.2418078e+00 6.9817689e-02 2.6385817e-02
1.2349711e+00 6.9846522e-02 3.1071283e-02
1.2277100e+00 7.0233500e-02 3.5851700e-02
1.2277100e+00 7.0233500e-02 3.5851700e-02
1.2206178e+00 7.1652611e-02 4.1339933e-02
1.2132411e+00 7.2713178e-02 4.6969400e-02
1.2055800e+00 7.3415200e-02 5.2740100e-02
1.1976344e+00 7.3758678e-02 5.8652033e-02
1.1894044e+00 7.3743611e-02 6.4705200e-02
1.1808900e+00 7.3370000e-02 7.0899600e-02
1.1808900e+00 7.3370000e-02 7.0899600e-02
1.1725167e+00 6.8961311e-02 7.0874322e-02
1.1634933e+00 6.4906044e-02 6.8697122e-02
1.1538200e+00 6.1204200e-02 6.4368000e-02
1.1434967e+00 5.7855778e-02 5.7886956e-02
1.1325233e+00 5.4860778e-02 4.9253989e-02
1.1209000e+00 5.2219200e-02 3.8469100e-02
1.1209000e+00 5.2219200e-02 3.8469100e-02
1.1099533e+00 5.1221600e-02 3.0015659e-02
1.0995767e+00 5.0170333e-02 2.2712392e-02
1.0897700e+00 4.9065400e-02 1.6559300e-02
1.0805333e+00 4.7906800e-02 1.1556382e-02
1.0718667e+00 4.6694533e-02 7.7036389e-03
1.0637700e+00 4.5428600e-02 5.0010700e-03
7.7286900e-01 7.0832800e-02 -1.7046900e-03
7.8164656e-01 6.4431900e-02 -6.4210000e-04
7.9195722e-01 5.8620967e-02 -2.9864000e-04
8.0380100e-01 5.3400000e-02 -6.7431000e-04
8.1717789e-01 4.8769000e-02 -1.7691100e-03
8.3208789e-01 4.4727967e-02 -3.5830400e-03
8.4853100e-01 4.1276900e-02 -6.1161000e-03
8.4853100e-01 4.1276900e-02 -6.1161000e-03
8.6327933e-01 4.2580611e-02 -6.4037383e-03
8.7721533e-01 4.4890578e-02 -6.2164317e-03
8.9033900e-01 4.8206800e-02 -5.5541800e-03
9.0265033e-01 5.2529278e-02 -4.4169833e-03
9.1414933e-01 5.7858011e-02 -2.8048417e-03
9.2483600e-01 6.4193000e-02 -7.1775500e-04
9.2483600e-01 6.4193000e-02 -7.1775500e-04
9.3498856e-01 7.0331278e-02 7.1334944e-04
9.4569156e-01 7.5267144e-02 2.1650978e-03
9.5694500e-01 7.9000600e-02 3.6374900e-03
9.6874889e-01 8.1531644e-02 5.1305261e-03
9.8110322e-01 8.2860278e-02 6.6442061e-03
9.9400800e-01 8.2986500e-02 8.1785300e-03
9.9400800e-01 8.2986500e-02 8.1785300e-03
1.0083022e+00 7.8313989e-02 8.6820089e-03
1.0215296e+00 7.3006622e-02 8.7722656e-03
1.0336900e+00 6.7064400e-02 8.4493000e-03
1.0447836e+00 6.0487322e-02 7.7131122e-03
1.0548102e+00 5.3275389e-02 6.5637022e-03
1.0637700e+00 4.5428600e-02 5.0010700e-03
6.2826200e-01 2.2977400e-01 -3.5544800e-03