# vtk DataFile Version 2.0
test
ASCII
DATASET POLYDATA
POINTS 4361 float
4.0550972e+00 6.7074875e+00 1.1860930e+01
4.1590958e+00 6.7734626e+00 1.1731455e+01
4.2654074e+00 6.8391618e+00 1.1603890e+01
4.3740320e+00 6.9045851e+00 1.1478236e+01
4.4849696e+00 6.9697324e+00 1.1354492e+01
4.5982202e+00 7.0346039e+00 1.1232660e+01
4.7137838e+00 7.0991994e+00 1.1112737e+01
4.7137838e+00 7.0991994e+00 1.1112737e+01
4.8342091e+00 7.1668578e+00 1.0996861e+01
4.9613563e+00 7.2334405e+00 1.0890308e+01
5.0952255e+00 7.2989475e+00 1.0793077e+01
5.2358166e+00 7.3633788e+00 1.0705169e+01
5.3831296e+00 7.4267343e+00 1.0626583e+01
5.5371646e+00 7.4890141e+00 1.0557320e+01
5.5371646e+00 7.4890141e+00 1.0557320e+01
5.7005658e+00 7.5474762e+00 1.0507922e+01
5.8662959e+00 7.6027382e+00 1.0471807e+01
6.0343550e+00 7.6548000e+00 1.0448973e+01
6.2047431e+00 7.7036617e+00 1.0439422e+01
6.3774601e+00 7.7493233e+00 1.0443152e+01
6.5525061e+00 7.7917847e+00 1.0460165e+01
6.5525061e+00 7.7917847e+00 1.0460165e+01
6.7259797e+00 7.8298097e+00 1.0483184e+01
6.8992881e+00 7.8650075e+00 1.0509995e+01
7.0724312e+00 7.8973780e+00 1.0540598e+01
7.2454090e+00 7.9269213e+00 1.0574994e+01
7.4182214e+00 7.9536374e+00 1.0613183e+01
7.5908686e+00 7.9775262e+00 1.0655164e+01
7.5908686e+00 7.9775262e+00 1.0655164e+01
7.7637044e+00 7.9990806e+00 1.0697525e+01
7.9374713e+00 8.0181778e+00 1.0735962e+01
8.1121692e+00 8.0348179e+00 1.0770474e+01
8.2877982e+00 8.0490008e+00 1.0801062e+01
8.4643582e+00 8.0607266e+00 1.0827725e+01
8.6418493e+00 8.0699952e+00 1.0850463e+01
8.6418493e+00 8.0699952e+00 1.0850463e+01
8.8221045e+00 8.0763369e+00 1.0864365e+01
9.0007399e+00 8.0801032e+00 1.0864658e+01
9.1777554e+00 8.0812940e+00 1.0851342e+01
9.3531510e+00 8.0799094e+00 1.0824418e+01
9.5269269e+00 8.0759493e+00 1.0783884e+01
9.6990828e+00 8.0694137e+00 1.0729742e+01
9.6990828e+00 8.0694137e+00 1.0729742e+01
9.8639578e+00 8.0602235e+00 1.0657128e+01
1.0021180e+01 8.0500523e+00 1.0573389e+01
1.0170748e+01 8.0389000e+00 1.0478527e+01
1.0312663e+01 8.0267667e+00 1.0372541e+01
1.0446925e+01 8.0136523e+00 1.0255431e+01
1.0573534e+01 7.9995569e+00 1.0127198e+01
1.0573534e+01 7.9995569e+00 1.0127198e+01
1.0690551e+01 7.9914706e+00 9.9920244e+00
1.0805366e+01 7.9823401e+00 9.8551484e+00
1.0917981e+01 7.9721655e+00 9.7165700e+00
1.1028394e+01 7.9609468e+00 9.5762893e+00
1.1136605e+01 7.9486840e+00 9.4343062e+00
1.1242616e+01 7.9353771e+00 9.2906207e+00
1.1242616e+01 7.9353771e+00 9.2906207e+00
1.1143305e+01 7.8685791e+00 9.1508635e+00
1.1044765e+01 7.8002191e+00 9.0113580e+00
1.0946997e+01 7.7302971e+00 8.8721043e+00
1.0850001e+01 7.6588131e+00 8.7331025e+00
1.0753777e+01 7.5857671e+00 8.5943524e+00
1.0658324e+01 7.5111591e+00 8.4558540e+00
1.0658324e+01 7.5111591e+00 8.4558540e+00
1.0564670e+01 7.4417013e+00 8.3132030e+00
1.0475389e+01 7.3710561e+00 8.1687199e+00
1.0390482e+01 7.2992233e+00 8.0224048e+00
1.0309947e+01 7.2262030e+00 7.8742577e+00
1.0233785e+01 7.1519952e+00 7.7242785e+00
1.0161996e+01 7.0766000e+00 7.5724673e+00
1.0161996e+01 7.0766000e+00 7.5724673e+00
1.0097295e+01 6.9996493e+00 7.4174921e+00
1.0041282e+01 6.9205844e+00 7.2613108e+00
9.9939575e+00 6.8394053e+00 7.1039236e+00
9.9553220e+00 6.7561119e+00 6.9453302e+00
9.9253752e+00 6.6707044e+00 6.7855309e+00
9.9041171e+00 6.5831826e+00 6.6245254e+00
9.9041171e+00 6.5831826e+00 6.6245254e+00
9.8948406e+00 6.4935693e+00 6.4634882e+00
9.8959832e+00 6.4026953e+00 6.3042602e+00
9.9075448e+00 6.3105606e+00 6.1468413e+00
9.9295254e+00 6.2171651e+00 5.9912317e+00
9.9619252e+00 6.1225089e+00 5.8374312e+00
1.0004744e+01 6.0265919e+00 5.6854399e+00
1.0004744e+01 6.0265919e+00 5.6854399e+00
1.0055805e+01 5.9302271e+00 5.5373104e+00
1.0112550e+01 5.8331578e+00 5.3923305e+00
1.0174979e+01 5.7353840e+00 5.2505002e+00
1.0243093e+01 5.6369056e+00 5.1118196e+00
1.0316892e+01 5.5377228e+00 4.9762885e+00
1.0396375e+01 5.4378354e+00 4.8439071e+00
1.0396375e+01 5.4378354e+00 4.8439071e+00
1.0478843e+01 5.3377684e+00 4.7140536e+00
1.0562879e+01 5.2366998e+00 4.5860982e+00
1.0648484e+01 5.1346297e+00 4.4600408e+00
1.0735657e+01 5.0315580e+00 4.3358816e+00
1.0824399e+01 4.9274848e+00 4.2136205e+00
1.0914710e+01 4.8224100e+00 4.0932574e+00
1.0914710e+01 4.8224100e+00 4.0932574e+00
1.1004607e+01 4.7153529e+00 3.9744372e+00
1.1092548e+01 4.6060097e+00 3.8562933e+00
1.1178534e+01 4.4943803e+00 3.7388257e+00
1.1262565e+01 4.3804648e+00 3.6220345e+00
1.1344640e+01 4.2642631e+00 3.5059196e+00
1.1424759e+01 4.1457753e+00 3.3904810e+00
1.1424759e+01 4.1457753e+00 3.3904810e+00
1.1501052e+01 4.0244424e+00 3.2748374e+00
1.1571024e+01 3.9000916e+00 3.1592595e+00
1.1634676e+01 3.7727229e+00 3.0437475e+00
1.1692006e+01 3.6423364e+00 2.9283013e+00
1.1743015e+01 3.5089319e+00 2.8129209e+00
1.1787703e+01 3.3725096e+00 2.6976063e+00
1.1787703e+01 3.3725096e+00 2.6976063e+00
1.1824259e+01 3.2321149e+00 2.5831008e+00
1.1850727e+01 3.0900160e+00 2.4697371e+00
1.1867106e+01 2.9462131e+00 2.3575154e+00
1.1873396e+01 2.8007061e+00 2.2464356e+00
1.1869597e+01 2.6534950e+00 2.1364977e+00
1.1855710e+01 2.5045798e+00 2.0277017e+00
1.1855710e+01 2.5045798e+00 2.0277017e+00
1.1829740e+01 2.3568604e+00 1.9198499e+00
1.1795451e+01 2.2101243e+00 1.8143031e+00
1.1752844e+01 2.0643715e+00 1.7110615e+00
1.1701918e+01 1.9196019e+00 1.6101251e+00
1.1642675e+01 1.7758157e+00 1.5114937e+00
1.1575113e+01 1.6330128e+00 1.4151675e+00
1.1575113e+01 1.6330128e+00 1.4151675e+00
1.1500327e+01 1.4924604e+00 1.3217727e+00
1.1421542e+01 1.3531271e+00 1.2303103e+00
1.1338760e+01 1.2150128e+00 1.1407803e+00
1.1251979e+01 1.0781177e+00 1.0531826e+00
1.1161200e+01 9.4244161e-01 9.6751720e-01
1.1066422e+01 8.0798465e-01 8.8378417e-01
1.1066422e+01 8.0798465e-01 8.8378417e-01
1.0970509e+01 6.7334779e-01 8.0167789e-01
1.0873682e+01 5.3904176e-01 7.2014309e-01
1.0775942e+01 4.0506657e-01 6.3917975e-01
1.0677289e+01 2.7142221e-01 5.5878787e-01
1.0577722e+01 1.3810869e-01 4.7896747e-01
1.0477243e+01 5.1260100e-03 3.9971853e-01
1.8861760e+00 5.5449951e+00 1.1692971e+01
1.8572182e+00 5.5055455e+00 1.1507363e+01
1.8296575e+00 5.4641127e+00 1.1322042e+01
1.8034938e+00 5.4206965e+00 1.1137008e+01
1.7787272e+00 5.3752971e+00 1.0952261e+01
1.7553577e+00 5.3279143e+00 1.0767802e+01
1.7333852e+00 5.2785483e+00 1.0583630e+01
1.7333852e+00 5.2785483e+00 1.0583630e+01
1.7177892e+00 5.2332987e+00 1.0397232e+01
1.7095963e+00 5.1859873e+00 1.0211568e+01
1.7088066e+00 5.1366141e+00 1.0026640e+01
1.7154201e+00 5.0851791e+00 9.8424467e+00
1.7294367e+00 5.0316824e+00 9.6589886e+00
1.7508566e+00 4.9761239e+00 9.4762655e+00
1.7508566e+00 4.9761239e+00 9.4762655e+00
1.7855387e+00 4.9163884e+00 9.2958877e+00
1.8310861e+00 4.8538821e+00 9.1207436e+00
1.8874986e+00 4.7886050e+00 8.9508331e+00
1.9547763e+00 4.7205570e+00 8.7861562e+00
2.0329192e+00 4.6497381e+00 8.6267129e+00
2.1219272e+00 4.5761485e+00 8.4725033e+00
2.1219272e+00 4.5761485e+00 8.4725033e+00
2.2233821e+00 4.4999483e+00 8.3278415e+00
2.3325455e+00 4.4224053e+00 8.1914660e+00
2.4494176e+00 4.3435193e+00 8.0633769e+00
2.5739982e+00 4.2632904e+00 7.9435741e+00
2.7062875e+00 4.1817185e+00 7.8320577e+00
2.8462853e+00 4.0988037e+00 7.7288277e+00
2.8462853e+00 4.0988037e+00 7.7288277e+00
2.9872061e+00 4.0156378e+00 7.6295789e+00
3.1291028e+00 3.9311360e+00 7.5331245e+00
3.2719752e+00 3.8452984e+00 7.4394646e+00
3.4158235e+00 3.7581248e+00 7.3485990e+00
3.5606476e+00 3.6696154e+00 7.2605279e+00
3.7064475e+00 3.5797702e+00 7.1752511e+00
3.7064475e+00 3.5797702e+00 7.1752511e+00
3.8527493e+00 3.4879728e+00 7.0926105e+00
3.9964669e+00 3.3935185e+00 7.0088152e+00
4.1376002e+00 3.2964072e+00 6.9238655e+00
4.2761494e+00 3.1966388e+00 6.8377611e+00
4.4121143e+00 3.0942135e+00 6.7505023e+00
4.5454949e+00 2.9891312e+00 6.6620888e+00
4.5454949e+00 2.9891312e+00 6.6620888e+00
4.6746209e+00 2.8806593e+00 6.5696734e+00
4.7952999e+00 2.7685352e+00 6.4725564e+00
4.9075318e+00 2.6527588e+00 6.3707380e+00
5.0113166e+00 2.5333303e+00 6.2642180e+00
5.1066544e+00 2.4102495e+00 6.1529965e+00
5.1935452e+00 2.2835165e+00 6.0370736e+00
5.1935452e+00 2.2835165e+00 6.0370736e+00
5.2650642e+00 2.1525601e+00 5.9142737e+00
5.3236707e+00 2.0211405e+00 5.7880332e+00
5.3693648e+00 1.8892577e+00 5.6583521e+00
5.4021465e+00 1.7569119e+00 5.5252305e+00
5.4220158e+00 1.6241029e+00 5.3886682e+00
5.4289726e+00 1.4908308e+00 5.2486653e+00
5.4289726e+00 1.4908308e+00 5.2486653e+00
5.4242832e+00 1.3608579e+00 5.1068373e+00
5.4124097e+00 1.2323746e+00 4.9647637e+00
5.3933520e+00 1.1053810e+00 4.8224446e+00
5.3671102e+00 9.7987708e-01 4.6798800e+00
5.3336843e+00 8.5586280e-01 4.5370699e+00
5.2930742e+00 7.3333817e-01 4.3940142e+00
5.2930742e+00 7.3333817e-01 4.3940142e+00
5.2496058e+00 6.1046017e-01 4.2529050e+00
5.2044664e+00 4.8792963e-01 4.1119617e+00
5.1576562e+00 3.6574653e-01 3.9711842e+00
5.1091750e+00 2.4391089e-01 3.8305725e+00
5.0590230e+00 1.2242269e-01 3.6901267e+00
5.0072000e+00 1.2819500e-03 3.5498468e+00
6.6811600e-01 5.3341104e+00 1.3908916e+01
7.2784857e-01 5.4388842e+00 1.3753984e+01
8.0049559e-01 5.5438712e+00 1.3608990e+01
8.8605707e-01 5.6490712e+00 1.3473935e+01
9.8453300e-01 5.7544843e+00 1.3348819e+01
1.0959234e+00 5.8601106e+00 1.3233641e+01
1.2202282e+00 5.9659499e+00 1.3128402e+01
1.2202282e+00 5.9659499e+00 1.3128402e+01
1.3778983e+00 6.0622462e+00 1.3066329e+01
1.5422019e+00 6.1489377e+00 1.3019188e+01
1.7131390e+00 6.2260244e+00 1.2986978e+01
1.8907095e+00 6.2935062e+00 1.2969701e+01
2.0749135e+00 6.3513832e+00 1.2967354e+01
2.2657510e+00 6.3996554e+00 1.2979940e+01
2.2657510e+00 6.3996554e+00 1.2979940e+01
2.4578992e+00 6.4422910e+00 1.2992046e+01
2.6466914e+00 6.4816658e+00 1.2985583e+01
2.8321278e+00 6.5177799e+00 1.2960550e+01
3.0142082e+00 6.5506333e+00 1.2916948e+01
3.1929328e+00 6.5802259e+00 1.2854777e+01
3.3683015e+00 6.6065578e+00 1.2774037e+01
3.3683015e+00 6.6065578e+00 1.2774037e+01
3.5134721e+00 6.6298712e+00 1.2646945e+01
3.6463608e+00 6.6505879e+00 1.2509817e+01
3.7669677e+00 6.6687079e+00 1.2362651e+01
3.8752927e+00 6.6842312e+00 1.2205448e+01
[...]
POINT_DATA 4361
VECTORS U float
7.5819500e-01 2.4463900e-01 -6.3272500e-03
7.6635800e-01 2.3911800e-01 -2.1087278e-03
7.7419867e-01 2.3299833e-01 1.7011556e-03
7.8171700e-01 2.2628000e-01 5.1024000e-03
7.8891300e-01 2.1896300e-01 8.0950056e-03
7.9578667e-01 2.1104733e-01 1.0678972e-02
8.0233800e-01 2.0253300e-01 1.2854300e-02
8.0233800e-01 2.0253300e-01 1.2854300e-02
8.0757344e-01 1.9588367e-01 1.4853611e-02
8.1234044e-01 1.8862633e-01 1.6050011e-02
8.1663900e-01 1.8076100e-01 1.6443500e-02
8.2046911e-01 1.7228767e-01 1.6034078e-02
8.2383078e-01 1.6320633e-01 1.4821744e-02
8.2672400e-01 1.5351700e-01 1.2806500e-02
8.2672400e-01 1.5351700e-01 1.2806500e-02
8.3048444e-01 1.4271052e-01 1.2110756e-02
8.3382744e-01 1.3256686e-01 1.1924189e-02
8.3675300e-01 1.2308600e-01 1.2246800e-02
8.3926111e-01 1.1426796e-01 1.3078589e-02
8.4135178e-01 1.0611272e-01 1.4419556e-02
8.4302500e-01 9.8620300e-02 1.6269700e-02
8.4302500e-01 9.8620300e-02 1.6269700e-02
8.4454967e-01 9.1298044e-02 1.5860133e-02
8.4585367e-01 8.4540544e-02 1.5567467e-02
8.4693700e-01 7.8347800e-02 1.5391700e-02
8.4779967e-01 7.2719811e-02 1.5332833e-02
8.4844167e-01 6.7656578e-02 1.5390867e-02
8.4886300e-01 6.3158100e-02 1.5565800e-02
8.4886300e-01 6.3158100e-02 1.5565800e-02
8.4902233e-01 5.8948133e-02 1.6281522e-02
8.4911167e-01 5.5037367e-02 1.7124722e-02
8.4913100e-01 5.1425800e-02 1.8095400e-02
8.4908033e-01 4.8113433e-02 1.9193556e-02
8.4895967e-01 4.5100267e-02 2.0419189e-02
8.4876900e-01 4.2386300e-02 2.1772300e-02
8.4876900e-01 4.2386300e-02 2.1772300e-02
8.4863633e-01 3.9602278e-02 2.3011378e-02
8.4844867e-01 3.7256611e-02 2.3835611e-02
8.4820600e-01 3.5349300e-02 2.4245000e-02
8.4790833e-01 3.3880344e-02 2.4239544e-02
8.4755567e-01 3.2849744e-02 2.3819244e-02
8.4714800e-01 3.2257500e-02 2.2984100e-02
8.4714800e-01 3.2257500e-02 2.2984100e-02
8.4695211e-01 3.2165856e-02 2.2581012e-02
8.4593311e-01 3.2722122e-02 2.1308012e-02
8.4409100e-01 3.3926300e-02 1.9165100e-02
8.4142578e-01 3.5778389e-02 1.6152276e-02
8.3793744e-01 3.8278389e-02 1.2269539e-02
8.3362600e-01 4.1426300e-02 7.5168900e-03
8.3362600e-01 4.1426300e-02 7.5168900e-03
8.2603167e-01 5.1016589e-02 -6.2777778e-07
8.1887533e-01 5.9862389e-02 -6.9026244e-03
8.1215700e-01 6.7963700e-02 -1.3189100e-02
8.0587667e-01 7.5320522e-02 -1.8860054e-02
8.0003433e-01 8.1932856e-02 -2.3915488e-02
7.9463000e-01 8.7800700e-02 -2.8355400e-02
7.9463000e-01 8.7800700e-02 -2.8355400e-02
7.9018044e-01 8.4650611e-02 -2.3872756e-02
7.8516011e-01 8.0453144e-02 -1.8529156e-02
7.7956900e-01 7.5208300e-02 -1.2324600e-02
7.7340711e-01 6.8916078e-02 -5.2590889e-03
7.6667444e-01 6.1576478e-02 2.6673778e-03
7.5937100e-01 5.3189500e-02 1.1454800e-02
7.5937100e-01 5.3189500e-02 1.1454800e-02
7.5135044e-01 5.1003722e-02 1.7425722e-02
7.4293444e-01 4.9189089e-02 2.3123456e-02
7.3412300e-01 4.7745600e-02 2.8548000e-02
7.2491611e-01 4.6673256e-02 3.3699356e-02
7.1531378e-01 4.5972056e-02 3.8577522e-02
7.0531600e-01 4.5642000e-02 4.3182500e-02
7.0531600e-01 4.5642000e-02 4.3182500e-02
6.9533167e-01 4.6042056e-02 4.6904800e-02
6.8473600e-01 4.6367989e-02 5.0169733e-02
6.7352900e-01 4.6619800e-02 5.2977300e-02
6.6171067e-01 4.6797489e-02 5.5327500e-02
6.4928100e-01 4.6901056e-02 5.7220333e-02
6.3624000e-01 4.6930500e-02 5.8655800e-02
6.3624000e-01 4.6930500e-02 5.8655800e-02
6.2280544e-01 4.6778900e-02 5.9319978e-02
6.0991078e-01 4.6344100e-02 5.9406444e-02
5.9755600e-01 4.5626100e-02 5.8915200e-02
5.8574111e-01 4.4624900e-02 5.7846244e-02
5.7446611e-01 4.3340500e-02 5.6199578e-02
5.6373100e-01 4.1772900e-02 5.3975200e-02
5.6373100e-01 4.1772900e-02 5.3975200e-02
5.5309400e-01 3.9860089e-02 5.1535278e-02
5.4276967e-01 3.7635956e-02 4.9067544e-02
5.3275800e-01 3.5100500e-02 4.6572000e-02
5.2305900e-01 3.2253722e-02 4.4048644e-02
5.1367267e-01 2.9095622e-02 4.1497478e-02
5.0459900e-01 2.5626200e-02 3.8918500e-02
5.0459900e-01 2.5626200e-02 3.8918500e-02
4.9564367e-01 2.2399621e-02 3.6057122e-02
4.8674300e-01 1.9179821e-02 3.3098022e-02
4.7789700e-01 1.5966800e-02 3.0041200e-02
4.6910567e-01 1.2760558e-02 2.6886656e-02
4.6036900e-01 9.5610944e-03 2.3634389e-02
4.5168700e-01 6.3684100e-03 2.0284400e-02
4.5168700e-01 6.3684100e-03 2.0284400e-02
4.4259511e-01 2.6399389e-03 1.7204958e-02
4.3306944e-01 -1.2707711e-03 1.4060392e-02
4.2311000e-01 -5.3637200e-03 1.0850700e-02
4.1271678e-01 -9.6389078e-03 7.5758831e-03
4.0188978e-01 -1.4096334e-02 4.2359411e-03
3.9062900e-01 -1.8736000e-02 8.3087400e-04
3.9062900e-01 -1.8736000e-02 8.3087400e-04
3.7841644e-01 -2.3387622e-02 -2.8322867e-03
3.6526378e-01 -2.7870789e-02 -6.4004880e-03
3.5117100e-01 -3.2185500e-02 -9.8737300e-03
3.3613811e-01 -3.6331756e-02 -1.3252013e-02
3.2016511e-01 -4.0309556e-02 -1.6535336e-02
3.0325200e-01 -4.4118900e-02 -1.9723700e-02
3.0325200e-01 -4.4118900e-02 -1.9723700e-02
2.8636078e-01 -4.7866833e-02 -2.1663756e-02
2.6926878e-01 -5.0854767e-02 -2.3101989e-02
2.5197600e-01 -5.3082700e-02 -2.4038400e-02
2.3448244e-01 -5.4550633e-02 -2.4472989e-02
2.1678811e-01 -5.5258567e-02 -2.4405756e-02
1.9889300e-01 -5.5206500e-02 -2.3836700e-02
1.9889300e-01 -5.5206500e-02 -2.3836700e-02
1.8129667e-01 -5.3016511e-02 -2.4092889e-02
1.6468600e-01 -5.0351744e-02 -2.4139689e-02
1.4906100e-01 -4.7212200e-02 -2.3977100e-02
1.3442167e-01 -4.3597878e-02 -2.3605122e-02
1.2076800e-01 -3.9508778e-02 -2.3023756e-02
1.0810000e-01 -3.4944900e-02 -2.2233000e-02
1.0810000e-01 -3.4944900e-02 -2.2233000e-02
9.5282089e-02 -3.0121453e-02 -2.1051144e-02
8.3234889e-02 -2.5439553e-02 -1.9669944e-02
7.1958400e-02 -2.0899200e-02 -1.8089400e-02
6.1452622e-02 -1.6500393e-02 -1.6309511e-02
5.1717556e-02 -1.2243133e-02 -1.4330278e-02
4.2753200e-02 -8.1274200e-03 -1.2151700e-02
4.2753200e-02 -8.1274200e-03 -1.2151700e-02
3.5168126e-02 -5.3898650e-03 -9.5530444e-03
2.8012326e-02 -2.8637700e-03 -6.9677578e-03
2.1285800e-02 -5.4913500e-04 -4.3958400e-03
1.4988549e-02 1.5540400e-03 -1.8372911e-03
9.1205722e-03 3.4457550e-03 7.0788889e-04
3.6818700e-03 5.1260100e-03 3.2397000e-03
6.6805600e-01 3.3348300e-01 4.8416400e-02
6.6168511e-01 3.3026467e-01 5.0328778e-02
6.5441111e-01 3.2564933e-01 5.2609078e-02
6.4623400e-01 3.1963700e-01 5.5257300e-02
6.3715378e-01 3.1222767e-01 5.8273444e-02
6.2717044e-01 3.0342133e-01 6.1657511e-02
6.1628400e-01 2.9321800e-01 6.5409500e-02
6.1628400e-01 2.9321800e-01 6.5409500e-02
6.0728178e-01 2.8833556e-01 6.7538467e-02
5.9772111e-01 2.8323989e-01 6.9347433e-02
5.8760200e-01 2.7793100e-01 7.0836400e-02
5.7692444e-01 2.7240889e-01 7.2005367e-02
5.6568844e-01 2.6667356e-01 7.2854333e-02
5.5389400e-01 2.6072500e-01 7.3383300e-02
5.5389400e-01 2.6072500e-01 7.3383300e-02
5.4261644e-01 2.5339967e-01 7.3809689e-02
5.3056878e-01 2.4549633e-01 7.3422289e-02
5.1775100e-01 2.3701500e-01 7.2221100e-02
5.0416311e-01 2.2795567e-01 7.0206122e-02
4.8980511e-01 2.1831833e-01 6.7377356e-02
4.7467700e-01 2.0810300e-01 6.3734800e-02
4.7467700e-01 2.0810300e-01 6.3734800e-02
4.6110256e-01 1.9683444e-01 5.9663022e-02
4.4912556e-01 1.8552144e-01 5.6731989e-02
4.3874600e-01 1.7416400e-01 5.4941700e-02
4.2996389e-01 1.6276211e-01 5.4292156e-02
4.2277922e-01 1.5131578e-01 5.4783356e-02
4.1719200e-01 1.3982500e-01 5.6415300e-02
4.1719200e-01 1.3982500e-01 5.6415300e-02
4.1020067e-01 1.2907416e-01 5.6535211e-02
4.0309467e-01 1.1863516e-01 5.6296811e-02
3.9587400e-01 1.0850800e-01 5.5700100e-02
3.8853867e-01 9.8692689e-02 5.4745078e-02
3.8108867e-01 8.9189222e-02 5.3431744e-02
3.7352400e-01 7.9997600e-02 5.1760100e-02
3.7352400e-01 7.9997600e-02 5.1760100e-02
3.6696678e-01 7.0900722e-02 5.1643756e-02
3.6003778e-01 6.2041689e-02 5.1127022e-02
3.5273700e-01 5.3420500e-02 5.0209900e-02
3.4506444e-01 4.5037156e-02 4.8892389e-02
3.3702011e-01 3.6891656e-02 4.7174489e-02
3.2860400e-01 2.8984000e-02 4.5056200e-02
3.2860400e-01 2.8984000e-02 4.5056200e-02
3.1948322e-01 2.1646882e-02 4.1814789e-02
3.0933989e-01 1.4676426e-02 3.8209822e-02
2.9817400e-01 8.0726300e-03 3.4241300e-02
2.8598556e-01 1.8354956e-03 2.9909222e-02
2.7277456e-01 -4.0349778e-03 2.5213589e-02
2.5854100e-01 -9.5387900e-03 2.0154400e-02
2.5854100e-01 -9.5387900e-03 2.0154400e-02
2.4135322e-01 -1.4651094e-02 1.4936238e-02
2.2381456e-01 -1.8669298e-02 1.0344768e-02
2.0592500e-01 -2.1593400e-02 6.3799900e-03
1.8768456e-01 -2.3423401e-02 3.0419044e-03
1.6909322e-01 -2.4159301e-02 3.3051111e-04
1.5015100e-01 -2.3801100e-02 -1.7541900e-03
1.5015100e-01 -2.3801100e-02 -1.7541900e-03
1.3265624e-01 -2.1533634e-02 -3.9606989e-03
1.1610091e-01 -1.8969434e-02 -5.7038589e-03
1.0048500e-01 -1.6108500e-02 -6.9836700e-03
8.5808511e-02 -1.2950831e-02 -7.8001322e-03
7.2071444e-02 -9.4964278e-03 -8.1532456e-03
5.9273800e-02 -5.7452900e-03 -8.0430100e-03
5.9273800e-02 -5.7452900e-03 -8.0430100e-03
4.8027524e-02 -3.8859278e-03 -6.4134222e-03
3.7401524e-02 -2.3018278e-03 -4.6793789e-03
2.7395800e-02 -9.9299000e-04 -2.8408800e-03
1.8010351e-02 4.0585556e-05 -8.9792556e-04
9.2451778e-03 7.9889889e-04 1.1494844e-03
1.1002800e-03 1.2819500e-03 3.3013500e-03
6.6811600e-01 3.6440600e-01 -1.0867200e-02
6.7715111e-01 3.6610567e-01 -6.4123611e-03
6.8573778e-01 3.6658300e-01 -2.1621711e-03
6.9387600e-01 3.6583800e-01 1.8833700e-03
7.0156578e-01 3.6387067e-01 5.7242622e-03
7.0880711e-01 3.6068100e-01 9.3605056e-03
7.1560000e-01 3.5626900e-01 1.2792100e-02
7.1560000e-01 3.5626900e-01 1.2792100e-02
7.2147644e-01 3.4810133e-01 1.4780020e-02
7.2689944e-01 3.3911733e-01 1.5620320e-02
7.3186900e-01 3.2931700e-01 1.5313000e-02
7.3638511e-01 3.1870033e-01 1.3858060e-02
7.4044778e-01 3.0726733e-01 1.1255500e-02
7.4405700e-01 2.9501800e-01 7.5053200e-03
7.4405700e-01 2.9501800e-01 7.5053200e-03
7.4742344e-01 2.8189144e-01 4.2432300e-03
7.5006544e-01 2.7036644e-01 1.2648133e-03
7.5198300e-01 2.6044300e-01 -1.4299300e-03
7.5317611e-01 2.5212111e-01 -3.8410000e-03
7.5364478e-01 2.4540078e-01 -5.9683967e-03
7.5338900e-01 2.4028200e-01 -7.8121200e-03
7.5338900e-01 2.4028200e-01 -7.8121200e-03
7.5271722e-01 2.4014344e-01 -8.5952667e-03
7.5263456e-01 2.4035078e-01 -8.9661633e-03
7.5314100e-01 2.4090400e-01 -8.9248100e-03
7.5423656e-01 2.4180311e-01 -8.4712067e-03
7.5592122e-01 2.4304811e-01 -7.6053533e-03
7.5819500e-01 2.4463900e-01 -6.3272500e-03
6.4532600e-01 3.5465500e-01 1.7235100e-02
6.5086156e-01 3.5361744e-01 2.4883733e-02
6.5569822e-01 3.5158344e-01 3.1551667e-02
6.5983600e-01 3.4855300e-01 3.7238900e-02
6.6327489e-01 3.4452611e-01 4.1945433e-02
6.6601489e-01 3.3950278e-01 4.5671267e-02
6.6805600e-01 3.3348300e-01 4.8416400e-02
7.9463000e-01 8.7800700e-02 -2.8355400e-02
7.8845744e-01 7.7711233e-02 -2.7279044e-02
7.8212644e-01 6.8081967e-02 -2.5943411e-02
7.7563700e-01 5.8912900e-02 -2.4348500e-02
7.6898911e-01 5.0204033e-02 -2.2494311e-02
7.6218278e-01 4.1955367e-02 -2.0380844e-02
7.5521800e-01 3.4166900e-02 -1.8008100e-02
7.5521800e-01 3.4166900e-02 -1.8008100e-02
7.5145556e-01 2.9501678e-02 -1.7475034e-02
7.4681889e-01 2.5194511e-02 -1.6083501e-02
7.4130800e-01 2.1245400e-02 -1.3833500e-02
7.3492289e-01 1.7654344e-02 -1.0725031e-02
7.2766356e-01 1.4421344e-02 -6.7580944e-03
7.1953000e-01 1.1546400e-02 -1.9326900e-03
7.1953000e-01 1.1546400e-02 -1.9326900e-03
7.1050844e-01 8.1157044e-03 2.2474667e-03
7.0119211e-01 5.1189178e-03 6.1008933e-03
6.9158100e-01 2.5560400e-03 9.6275900e-03
6.8167511e-01 4.2707111e-04 1.2827557e-02
6.7147444e-01 -1.2679889e-03 1.5700793e-02
6.6097900e-01 -2.5291400e-03 1.8247300e-02
6.6097900e-01 -2.5291400e-03 1.8247300e-02
6.4597111e-01 -3.9040011e-03 2.0663011e-02
6.3056211e-01 -5.0011244e-03 2.2341778e-02
6.1475200e-01 -5.8205100e-03 2.3283600e-02
5.9854078e-01 -6.3621578e-03 2.3488478e-02
5.8192844e-01 -6.6260678e-03 2.2956411e-02
5.6491500e-01 -6.6122400e-03 2.1687400e-02
5.6491500e-01 -6.6122400e-03 2.1687400e-02
5.5063878e-01 -5.4950467e-03 2.0639567e-02
5.3650978e-01 -4.0579800e-03 1.9388800e-02
5.2252800e-01 -2.3010400e-03 1.7935100e-02
5.0869344e-01 -2.2422667e-04 1.6278467e-02
4.9500611e-01 2.1724600e-03 1.4418900e-02
4.8146600e-01 4.8890200e-03 1.2356400e-02
4.8146600e-01 4.8890200e-03 1.2356400e-02
4.6773600e-01 7.0634667e-03 9.6948722e-03
4.5383033e-01 9.4552600e-03 7.0401289e-03
4.3974900e-01 1.2064400e-02 4.3921700e-03
4.2549200e-01 1.4890887e-02 1.7509956e-03
4.1105933e-01 1.7934720e-02 -8.8339444e-04
3.9645100e-01 2.1195900e-02 -3.5110000e-03
3.9645100e-01 2.1195900e-02 -3.5110000e-03
3.8316122e-01 2.3875344e-02 -5.9984944e-03
3.6888889e-01 2.6880578e-02 -8.0636444e-03
3.5363400e-01 3.0211600e-02 -9.7064500e-03
3.3739656e-01 3.3868411e-02 -1.0926911e-02
3.2017656e-01 3.7851011e-02 -1.1725028e-02
3.0197400e-01 4.2159400e-02 -1.2100800e-02
3.0197400e-01 4.2159400e-02 -1.2100800e-02
2.8063467e-01 4.7749700e-02 -1.1108888e-02
2.6016033e-01 5.2164967e-02 -9.9445978e-03
2.4055100e-01 5.5405200e-02 -8.6079300e-03
2.2180667e-01 5.7470400e-02 -7.0988844e-03
2.0392733e-01 5.8360567e-02 -5.4174611e-03
1.8691300e-01 5.8075700e-02 -3.5636600e-03
1.8691300e-01 5.8075700e-02 -3.5636600e-03
1.6887303e-01 5.6319078e-02 -1.7250667e-03
1.5204370e-01 5.3947511e-02 -9.9746667e-05
1.3642500e-01 5.0961000e-02 1.3123000e-03
1.2201693e-01 4.7359544e-02 2.5110733e-03
1.0881950e-01 4.3143144e-02 3.4965733e-03
9.6832700e-02 3.8311800e-02 4.2688000e-03
9.6832700e-02 3.8311800e-02 4.2688000e-03
8.5580367e-02 3.3756067e-02 5.5373389e-03
7.4850600e-02 2.9282767e-02 6.7387889e-03
6.4643400e-02 2.4891900e-02 7.8731500e-03
5.4958767e-02 2.0583467e-02 8.9404222e-03
4.5796700e-02 1.6357467e-02 9.9406056e-03
3.7157200e-02 1.2213900e-02 1.0873700e-02
3.7157200e-02 1.2213900e-02 1.0873700e-02
3.2263393e-02 1.0402290e-02 8.9741028e-03
2.7269727e-02 8.1894033e-03 7.1455694e-03
2.2176200e-02 5.5752400e-03 5.3881000e-03
1.6982813e-02 2.5598000e-03 3.7016944e-03
1.1689567e-02 -8.5691667e-04 2.0863528e-03
6.2964600e-03 -4.6749100e-03 5.4207500e-04
2.5323000e+00 1.8237200e-01 6.2054100e-02
2.5283489e+00 1.6865856e-01 6.6451689e-02
2.5240156e+00 1.5534889e-01 7.0738456e-02
2.5193000e+00 1.4244300e-01 7.4914400e-02
2.5142022e+00 1.2994089e-01 7.8979522e-02
2.5087222e+00 1.1784256e-01 8.2933822e-02
2.5028600e+00 1.0614800e-01 8.6777300e-02
2.5028600e+00 1.0614800e-01 8.6777300e-02
2.4977189e+00 9.8371489e-02 8.9201744e-02
2.4925022e+00 9.2724056e-02 9.1463711e-02
2.4872100e+00 8.9205700e-02 9.3563200e-02
2.4818422e+00 8.7816422e-02 9.5500211e-02
2.4763989e+00 8.8556222e-02 9.7274744e-02
2.4708800e+00 9.1425100e-02 9.8886800e-02
2.4708800e+00 9.1425100e-02 9.8886800e-02
2.4651444e+00 9.3996222e-02 1.0029900e-01
2.4586378e+00 9.6833222e-02 1.0183673e-01
2.4513600e+00 9.9936100e-02 1.0350000e-01
2.4433111e+00 1.0330486e-01 1.0528880e-01
2.4344911e+00 1.0693949e-01 1.0720313e-01
2.4249000e+00 1.1084000e-01 1.0924300e-01
2.4249000e+00 1.1084000e-01 1.0924300e-01
2.4120756e+00 1.1508878e-01 1.1263933e-01
2.3998856e+00 1.1732378e-01 1.1592133e-01
2.3883300e+00 1.1754500e-01 1.1908900e-01
2.3774089e+00 1.1575244e-01 1.2214233e-01
2.3671222e+00 1.1194611e-01 1.2508133e-01
2.3574700e+00 1.0612600e-01 1.2790600e-01
2.3574700e+00 1.0612600e-01 1.2790600e-01
2.3499289e+00 9.9497144e-02 1.2906344e-01
2.3427922e+00 9.2570878e-02 1.2924644e-01
2.3360600e+00 8.5347200e-02 1.2845500e-01
2.3297322e+00 7.7826111e-02 1.2668911e-01
2.3238089e+00 7.0007611e-02 1.2394878e-01
2.3182900e+00 6.1891700e-02 1.2023400e-01
2.3182900e+00 6.1891700e-02 1.2023400e-01
2.3074289e+00 6.9022200e-02 1.2098889e-01
2.2957022e+00 7.5767267e-02 1.2113922e-01
2.2831100e+00 8.2126900e-02 1.2068500e-01
2.2696522e+00 8.8101100e-02 1.1962622e-01
2.2553289e+00 9.3689867e-02 1.1796289e-01
2.2401400e+00 9.8893200e-02 1.1569500e-01
2.2401400e+00 9.8893200e-02 1.1569500e-01
2.2257367e+00 1.0194491e-01 1.1109930e-01
2.2124500e+00 1.0336818e-01 1.0613697e-01
2.2002800e+00 1.0316300e-01 1.0080800e-01
2.1892267e+00 1.0132938e-01 9.5112400e-02
2.1792900e+00 9.7867311e-02 8.9050167e-02
2.1704700e+00 9.2776800e-02 8.2621300e-02
2.1704700e+00 9.2776800e-02 8.2621300e-02
2.1630989e+00 8.6203722e-02 7.8795089e-02
2.1550322e+00 7.9371756e-02 7.4622489e-02
2.1462700e+00 7.2280900e-02 7.0103500e-02
2.1368122e+00 6.4931156e-02 6.5238122e-02
2.1266589e+00 5.7322522e-02 6.0026356e-02
2.1158100e+00 4.9455000e-02 5.4468200e-02
2.1158100e+00 4.9455000e-02 5.4468200e-02
2.1022400e+00 4.1668556e-02 4.7106933e-02
2.0872533e+00 3.5688022e-02 4.0352567e-02
2.0708500e+00 3.1513400e-02 3.4205100e-02
2.0530300e+00 2.9144689e-02 2.8664533e-02
2.0337933e+00 2.8581889e-02 2.3730867e-02
2.0131400e+00 2.9825000e-02 1.9404100e-02
2.0131400e+00 2.9825000e-02 1.9404100e-02
1.9919878e+00 3.5150544e-02 1.7453922e-02
1.9728044e+00 4.0459344e-02 1.5980656e-02
1.9555900e+00 4.5751400e-02 1.4984300e-02
1.9403444e+00 5.1026711e-02 1.4464856e-02
1.9270678e+00 5.6285278e-02 1.4422322e-02
1.9157600e+00 6.1527100e-02 1.4856700e-02
1.9502600e+00 8.2441200e-02 2.4300600e-03
1.9475378e+00 7.6515822e-02 2.7294056e-03
1.9436044e+00 7.1566322e-02 3.7374556e-03
1.9384600e+00 6.7592700e-02 5.4542100e-03
1.9321044e+00 6.4594956e-02 7.8796689e-03
1.9245378e+00 6.2573089e-02 1.1013832e-02
1.9157600e+00 6.1527100e-02 1.4856700e-02
2.4102600e+00 1.9985600e-01 5.9896300e-02
2.4029089e+00 1.9411567e-01 5.4747878e-02
2.3955889e+00 1.8828733e-01 4.9349478e-02
2.3883000e+00 1.8237100e-01 4.3701100e-02
2.3810422e+00 1.7636667e-01 3.7802744e-02
2.3738156e+00 1.7027433e-01 3.1654411e-02
2.3666200e+00 1.6409400e-01 2.5256100e-02
2.3666200e+00 1.6409400e-01 2.5256100e-02
2.3598356e+00 1.5663056e-01 1.9020711e-02
2.3531922e+00 1.4967022e-01 1.4418778e-02
2.3466900e+00 1.4321300e-01 1.1450300e-02
2.3403289e+00 1.3725889e-01 1.0115278e-02
2.3341089e+00 1.3180789e-01 1.0413711e-02
2.3280300e+00 1.2686000e-01 1.2345600e-02
2.3280300e+00 1.2686000e-01 1.2345600e-02
2.3182833e+00 1.2435011e-01 2.0325656e-02
2.3077733e+00 1.2253678e-01 2.8459389e-02
2.2965000e+00 1.2142000e-01 3.6746800e-02
2.2844633e+00 1.2099978e-01 4.5187889e-02
2.2716633e+00 1.2127611e-01 5.3782656e-02
2.2581000e+00 1.2224900e-01 6.2531100e-02
2.2581000e+00 1.2224900e-01 6.2531100e-02
2.2449356e+00 1.2508611e-01 7.2452611e-02
2.2312222e+00 1.2725244e-01 8.2598778e-02
2.2169600e+00 1.2874800e-01 9.2969600e-02
2.2021489e+00 1.2957278e-01 1.0356508e-01
2.1867889e+00 1.2972678e-01 1.1438521e-01
2.1708800e+00 1.2921000e-01 1.2543000e-01
2.1708800e+00 1.2921000e-01 1.2543000e-01
2.1548178e+00 1.2092294e-01 1.2478514e-01
2.1374844e+00 1.1349961e-01 1.2019914e-01
2.1188800e+00 1.0694000e-01 1.1167200e-01
2.0990044e+00 1.0124411e-01 9.9203711e-02
2.0778578e+00 9.6411944e-02 8.2794278e-02
2.0554400e+00 9.2443500e-02 6.2443700e-02
2.0554400e+00 9.2443500e-02 6.2443700e-02
2.0347044e+00 9.1268589e-02 4.6873604e-02
2.0152511e+00 8.9896822e-02 3.3530638e-02
1.9970800e+00 8.8328200e-02 2.2414800e-02
1.9801911e+00 8.6562722e-02 1.3526091e-02
1.9645844e+00 8.4600389e-02 6.8645111e-03
1.9502600e+00 8.2441200e-02 2.4300600e-03
1.4198700e+00 1.3419400e-01 -7.5157800e-03
1.4353211e+00 1.2250113e-01 -5.4122944e-03
1.4535111e+00 1.1171980e-01 -4.5938178e-03
1.4744400e+00 1.0185000e-01 -5.0603500e-03
1.4981078e+00 9.2891733e-02 -6.8118911e-03
1.5245144e+00 8.4845000e-02 -9.8484411e-03
1.5536600e+00 7.7709800e-02 -1.4170000e-02
1.5536600e+00 7.7709800e-02 -1.4170000e-02
1.5807889e+00 7.9221667e-02 -1.4607369e-02
1.6066956e+00 8.2752400e-02 -1.4185369e-02
1.6313800e+00 8.8302000e-02 -1.2904000e-02
1.6548422e+00 9.5870467e-02 -1.0763262e-02
1.6770822e+00 1.0545780e-01 -7.7631556e-03
1.6981000e+00 1.1706400e-01 -3.9036800e-03
1.6981000e+00 1.1706400e-01 -3.9036800e-03
1.7178267e+00 1.2835844e-01 -1.4563144e-03
1.7383667e+00 1.3737878e-01 9.2924889e-04
1.7597200e+00 1.4412500e-01 3.2530100e-03
1.7818867e+00 1.4859711e-01 5.5149689e-03
1.8048667e+00 1.5079511e-01 7.7151256e-03
1.8286600e+00 1.5071900e-01 9.8534800e-03
1.8286600e+00 1.5071900e-01 9.8534800e-03
1.8539878e+00 1.4188987e-01 1.0185643e-02
1.8772911e+00 1.3204053e-01 9.8900467e-03
1.8985700e+00 1.2117100e-01 8.9666900e-03
1.9178244e+00 1.0928127e-01 7.4155733e-03
1.9350544e+00 9.6371333e-02 5.2366967e-03
1.9502600e+00 8.2441200e-02 2.4300600e-03
1.1617000e+00 4.2219800e-01 -8.0651600e-03