# vtk DataFile Version 2.0
test
ASCII
DATASET POLYDATA
POINTS 4361 float
4.4910122e+00 6.8493475e+00 1.1859397e+01
4.5987923e+00 6.9119626e+00 1.1731961e+01
4.7086865e+00 6.9739721e+00 1.1606176e+01
4.8206950e+00 7.0353761e+00 1.1482043e+01
4.9348177e+00 7.0961744e+00 1.1359560e+01
5.0510547e+00 7.1563672e+00 1.1238729e+01
5.1694058e+00 7.2159544e+00 1.1119548e+01
5.1694058e+00 7.2159544e+00 1.1119548e+01
5.2919845e+00 7.2798689e+00 1.1004321e+01
5.4210347e+00 7.3424453e+00 1.0897952e+01
5.5565565e+00 7.4036835e+00 1.0800442e+01
5.6985497e+00 7.4635836e+00 1.0711791e+01
5.8470144e+00 7.5221454e+00 1.0631999e+01
6.0019506e+00 7.5793691e+00 1.0561066e+01
6.0019506e+00 7.5793691e+00 1.0561066e+01
6.1669125e+00 7.6320633e+00 1.0510884e+01
6.3340363e+00 7.6818949e+00 1.0474452e+01
6.5033220e+00 7.7288640e+00 1.0451771e+01
6.6747697e+00 7.7729707e+00 1.0442840e+01
6.8483794e+00 7.8142148e+00 1.0447659e+01
7.0241511e+00 7.8525964e+00 1.0466228e+01
7.0241511e+00 7.8525964e+00 1.0466228e+01
7.1982334e+00 7.8866270e+00 1.0489384e+01
7.3720578e+00 7.9181166e+00 1.0516339e+01
7.5456242e+00 7.9470652e+00 1.0547091e+01
7.7189326e+00 7.9734728e+00 1.0581642e+01
7.8919831e+00 7.9973394e+00 1.0619991e+01
8.0647756e+00 8.0186651e+00 1.0662139e+01
8.0647756e+00 8.0186651e+00 1.0662139e+01
8.2376288e+00 8.0378064e+00 1.0705009e+01
8.4113930e+00 8.0546367e+00 1.0743936e+01
8.5860682e+00 8.0691559e+00 1.0778920e+01
8.7616545e+00 8.0813641e+00 1.0809962e+01
8.9381519e+00 8.0912612e+00 1.0837061e+01
9.1155603e+00 8.0988473e+00 1.0860217e+01
9.1155603e+00 8.0988473e+00 1.0860217e+01
9.2957437e+00 8.1034923e+00 1.0874533e+01
9.4742634e+00 8.1057900e+00 1.0875011e+01
9.6511194e+00 8.1057404e+00 1.0861650e+01
9.8263116e+00 8.1033435e+00 1.0834450e+01
9.9998401e+00 8.0985992e+00 1.0793412e+01
1.0171705e+01 8.0915076e+00 1.0738535e+01
1.0171705e+01 8.0915076e+00 1.0738535e+01
1.0336353e+01 8.0818931e+00 1.0665370e+01
1.0492961e+01 8.0718789e+00 1.0580723e+01
1.0641527e+01 8.0614650e+00 1.0484592e+01
1.0782052e+01 8.0506514e+00 1.0376979e+01
1.0914536e+01 8.0394381e+00 1.0257882e+01
1.1038978e+01 8.0278251e+00 1.0127303e+01
1.1038978e+01 8.0278251e+00 1.0127303e+01
1.1152175e+01 8.0265759e+00 9.9887826e+00
1.1263477e+01 8.0237785e+00 9.8488318e+00
1.1372884e+01 8.0194328e+00 9.7074508e+00
1.1480396e+01 8.0135389e+00 9.5646397e+00
1.1586013e+01 8.0060967e+00 9.4203984e+00
1.1689736e+01 7.9971064e+00 9.2747269e+00
1.1689736e+01 7.9971064e+00 9.2747269e+00
1.1588172e+01 7.9281607e+00 9.1372888e+00
1.1487109e+01 7.8569972e+00 9.0007217e+00
1.1386548e+01 7.7836158e+00 8.8650256e+00
1.1286488e+01 7.7080165e+00 8.7302007e+00
1.1186930e+01 7.6301994e+00 8.5962467e+00
1.1087873e+01 7.5501643e+00 8.4631638e+00
1.1087873e+01 7.5501643e+00 8.4631638e+00
1.0989933e+01 7.4791920e+00 8.3239890e+00
1.0896125e+01 7.4071790e+00 8.1828882e+00
1.0806449e+01 7.3341255e+00 8.0398612e+00
1.0720904e+01 7.2600314e+00 7.8949082e+00
1.0639491e+01 7.1848966e+00 7.7480291e+00
1.0562210e+01 7.1087213e+00 7.5992240e+00
1.0562210e+01 7.1087213e+00 7.5992240e+00
1.0491934e+01 7.0316944e+00 7.4466337e+00
1.0430014e+01 6.9525156e+00 7.2926126e+00
1.0376449e+01 6.8711850e+00 7.1371605e+00
1.0331239e+01 6.7877024e+00 6.9802774e+00
1.0294384e+01 6.7020680e+00 6.8219635e+00
1.0265885e+01 6.6142818e+00 6.6622186e+00
1.0265885e+01 6.6142818e+00 6.6622186e+00
1.0249423e+01 6.5242866e+00 6.5020972e+00
1.0243408e+01 6.4329126e+00 6.3433674e+00
1.0247840e+01 6.3401599e+00 6.1860293e+00
1.0262718e+01 6.2460284e+00 6.0300830e+00
1.0288044e+01 6.1505181e+00 5.8755283e+00
1.0323816e+01 6.0536291e+00 5.7223654e+00
1.0323816e+01 6.0536291e+00 5.7223654e+00
1.0367949e+01 5.9561020e+00 5.5728274e+00
1.0417990e+01 5.8576558e+00 5.4264252e+00
1.0473938e+01 5.7582906e+00 5.2831587e+00
1.0535794e+01 5.6580062e+00 5.1430280e+00
1.0603558e+01 5.5568028e+00 5.0060331e+00
1.0677229e+01 5.4546803e+00 4.8721739e+00
1.0677229e+01 5.4546803e+00 4.8721739e+00
1.0753898e+01 5.3523971e+00 4.7407259e+00
1.0832149e+01 5.2491398e+00 4.6110797e+00
1.0911981e+01 5.1449085e+00 4.4832353e+00
1.0993395e+01 5.0397030e+00 4.3571928e+00
1.1076390e+01 4.9335234e+00 4.2329521e+00
1.1160967e+01 4.8263698e+00 4.1105132e+00
1.1160967e+01 4.8263698e+00 4.1105132e+00
1.1244855e+01 4.7170758e+00 3.9896497e+00
1.1326502e+01 4.6053618e+00 3.8694820e+00
1.1405907e+01 4.4912279e+00 3.7500100e+00
1.1483071e+01 4.3746740e+00 3.6312338e+00
1.1557994e+01 4.2557002e+00 3.5131534e+00
1.1630674e+01 4.1343064e+00 3.3957688e+00
1.1630674e+01 4.1343064e+00 3.3957688e+00
1.1699025e+01 4.0100373e+00 3.2782342e+00
1.1760619e+01 3.8830079e+00 3.1608227e+00
1.1815458e+01 3.7532183e+00 3.0435345e+00
1.1863540e+01 3.6206684e+00 2.9263693e+00
1.1904867e+01 3.4853583e+00 2.8093274e+00
1.1939437e+01 3.3472878e+00 2.6924086e+00
1.1939437e+01 3.3472878e+00 2.6924086e+00
1.1965924e+01 3.2054189e+00 2.5768687e+00
1.1982476e+01 3.0622655e+00 2.4627639e+00
1.1989096e+01 2.9178276e+00 2.3500940e+00
1.1985781e+01 2.7721051e+00 2.2388592e+00
1.1972534e+01 2.6250982e+00 2.1290593e+00
1.1949352e+01 2.4768068e+00 2.0206944e+00
1.1949352e+01 2.4768068e+00 2.0206944e+00
1.1914721e+01 2.3307129e+00 1.9127963e+00
1.1872385e+01 2.1857419e+00 1.8072485e+00
1.1822343e+01 2.0418938e+00 1.7040508e+00
1.1764595e+01 1.8991685e+00 1.6032034e+00
1.1699141e+01 1.7575661e+00 1.5047063e+00
1.1625982e+01 1.6170866e+00 1.4085594e+00
1.1625982e+01 1.6170866e+00 1.4085594e+00
1.1545307e+01 1.4789279e+00 1.3156997e+00
1.1460982e+01 1.3419098e+00 1.2248335e+00
1.1373007e+01 1.2060321e+00 1.1359609e+00
1.1281382e+01 1.0712950e+00 1.0490817e+00
1.1186106e+01 9.3769842e-01 9.6419610e-01
1.1087181e+01 8.0524237e-01 8.8130397e-01
1.1087181e+01 8.0524237e-01 8.8130397e-01
1.0987823e+01 6.7188099e-01 8.0001332e-01
1.0887742e+01 5.3876835e-01 7.1928630e-01
1.0786937e+01 4.0590446e-01 6.3912292e-01
1.0685408e+01 2.7328931e-01 5.5952317e-01
1.0583156e+01 1.4092291e-01 4.8048706e-01
1.0480180e+01 8.8052500e-03 4.0201458e-01
2.2785400e+00 5.7304441e+00 1.1715108e+01
2.2461346e+00 5.6890123e+00 1.1530692e+01
2.2145812e+00 5.6448005e+00 1.1346865e+01
2.1838798e+00 5.5978085e+00 1.1163629e+01
2.1540303e+00 5.5480365e+00 1.0980982e+01
2.1250328e+00 5.4954844e+00 1.0798925e+01
2.0968872e+00 5.4401523e+00 1.0617458e+01
2.0968872e+00 5.4401523e+00 1.0617458e+01
2.0763854e+00 5.3920518e+00 1.0432508e+01
2.0629565e+00 5.3418220e+00 1.0248131e+01
2.0566006e+00 5.2894631e+00 1.0064329e+01
2.0573176e+00 5.2349749e+00 9.8810997e+00
2.0651076e+00 5.1783575e+00 9.6984445e+00
2.0799706e+00 5.1196109e+00 9.5163632e+00
2.0799706e+00 5.1196109e+00 9.5163632e+00
2.1078902e+00 5.0560304e+00 9.3364900e+00
2.1461175e+00 4.9893988e+00 9.1613673e+00
2.1946526e+00 4.9197160e+00 8.9909950e+00
2.2534954e+00 4.8469820e+00 8.8253731e+00
2.3226459e+00 4.7711968e+00 8.6645016e+00
2.4021042e+00 4.6923605e+00 8.5083805e+00
2.4021042e+00 4.6923605e+00 8.5083805e+00
2.4951373e+00 4.6102275e+00 8.3615465e+00
2.5968728e+00 4.5266617e+00 8.2236280e+00
2.7073106e+00 4.4416633e+00 8.0946250e+00
2.8264508e+00 4.3552321e+00 7.9745375e+00
2.9542933e+00 4.2673683e+00 7.8633655e+00
3.0908383e+00 4.1780717e+00 7.7611091e+00
3.0908383e+00 4.1780717e+00 7.7611091e+00
3.2274894e+00 4.0888653e+00 7.6620624e+00
3.3650198e+00 3.9984912e+00 7.5655419e+00
3.5034292e+00 3.9069494e+00 7.4715478e+00
3.6427178e+00 3.8142398e+00 7.3800798e+00
3.7828856e+00 3.7203625e+00 7.2911381e+00
3.9239325e+00 3.6253176e+00 7.2047227e+00
3.9239325e+00 3.6253176e+00 7.2047227e+00
4.0660081e+00 3.5282821e+00 7.1217226e+00
4.2052067e+00 3.4286529e+00 7.0373389e+00
4.3415282e+00 3.3264301e+00 6.9515719e+00
4.4749728e+00 3.2216136e+00 6.8644214e+00
4.6055404e+00 3.1142034e+00 6.7758874e+00
4.7332309e+00 3.0041996e+00 6.6859700e+00
4.7332309e+00 3.0041996e+00 6.6859700e+00
4.8560601e+00 2.8911135e+00 6.5912952e+00
4.9698051e+00 2.7747249e+00 6.4917103e+00
5.0744658e+00 2.6550338e+00 6.3872153e+00
5.1700422e+00 2.5320402e+00 6.2778101e+00
5.2565343e+00 2.4057440e+00 6.1634949e+00
5.3339422e+00 2.2761454e+00 6.0442695e+00
5.3339422e+00 2.2761454e+00 6.0442695e+00
5.3945207e+00 2.1429700e+00 5.9183496e+00
5.4422729e+00 2.0099038e+00 5.7895089e+00
5.4771988e+00 1.8769467e+00 5.6577476e+00
5.4992984e+00 1.7440988e+00 5.5230654e+00
5.5085717e+00 1.6113601e+00 5.3854626e+00
5.5050186e+00 1.4787305e+00 5.2449390e+00
5.5050186e+00 1.4787305e+00 5.2449390e+00
5.4910596e+00 1.3501411e+00 5.1025362e+00
5.4705511e+00 1.2231595e+00 4.9600506e+00
5.4434930e+00 1.0977856e+00 4.8174823e+00
5.4098855e+00 9.7401945e-01 4.6748313e+00
5.3697284e+00 8.5186101e-01 4.5320976e+00
5.3230219e+00 7.3131030e-01 4.3892812e+00
5.3230219e+00 7.3131030e-01 4.3892812e+00
5.2740809e+00 6.0930876e-01 4.2491674e+00
5.2237254e+00 4.8750291e-01 4.1092849e+00
5.1719552e+00 3.6589275e-01 3.9696336e+00
5.1187704e+00 2.4447829e-01 3.8302136e+00
5.0641710e+00 1.2325952e-01 3.6910249e+00
5.0081571e+00 2.2364500e-03 3.5520675e+00
1.0598900e+00 5.5297174e+00 1.3898817e+01
1.1243163e+00 5.6355684e+00 1.3746568e+01
1.2013800e+00 5.7410303e+00 1.3604147e+01
1.2910811e+00 5.8461032e+00 1.3471554e+01
1.3934194e+00 5.9507871e+00 1.3348788e+01
1.5083952e+00 6.0550820e+00 1.3235850e+01
1.6360082e+00 6.1589879e+00 1.3132740e+01
1.6360082e+00 6.1589879e+00 1.3132740e+01
1.7963741e+00 6.2513601e+00 1.3071936e+01
1.9631180e+00 6.3337049e+00 1.3025436e+01
2.1362400e+00 6.4060224e+00 1.2993243e+01
2.3157400e+00 6.4683124e+00 1.2975354e+01
2.5016180e+00 6.5205751e+00 1.2971770e+01
2.6938740e+00 6.5628104e+00 1.2982491e+01
2.6938740e+00 6.5628104e+00 1.2982491e+01
2.8873046e+00 6.5988732e+00 1.2992976e+01
3.0770915e+00 6.6325917e+00 1.2985088e+01
3.2632348e+00 6.6639659e+00 1.2958826e+01
3.4457343e+00 6.6929958e+00 1.2914192e+01
3.6245902e+00 6.7196815e+00 1.2851184e+01
3.7998025e+00 6.7440228e+00 1.2769804e+01
3.7998025e+00 6.7440228e+00 1.2769804e+01
3.9450482e+00 6.7679623e+00 1.2642857e+01
4.0782763e+00 6.7893477e+00 1.2505995e+01
4.1994867e+00 6.8081789e+00 1.2359218e+01
4.3086795e+00 6.8244559e+00 1.2202526e+01
[...]
POINT_DATA 4361
VECTORS U float
1.1941100e+00 3.8649900e-01 -7.8605200e-03
1.2060544e+00 3.7761800e-01 -1.6024389e-03
1.2174778e+00 3.6780867e-01 3.9874578e-03
1.2283800e+00 3.5707100e-01 8.9091700e-03
1.2387611e+00 3.4540500e-01 1.3162698e-02
1.2486211e+00 3.3281067e-01 1.6748041e-02
1.2579600e+00 3.1928800e-01 1.9665200e-02
1.2579600e+00 3.1928800e-01 1.9665200e-02
1.2653489e+00 3.0889478e-01 2.2312956e-02
1.2720189e+00 2.9763111e-01 2.3694089e-02
1.2779700e+00 2.8549700e-01 2.3808600e-02
1.2832022e+00 2.7249244e-01 2.2656489e-02
1.2877156e+00 2.5861744e-01 2.0237756e-02
1.2915100e+00 2.4387200e-01 1.6552400e-02
1.2915100e+00 2.4387200e-01 1.6552400e-02
1.2968311e+00 2.2729756e-01 1.5072489e-02
1.3015678e+00 2.1172356e-01 1.4569922e-02
1.3057200e+00 1.9715000e-01 1.5044700e-02
1.3092878e+00 1.8357689e-01 1.6496822e-02
1.3122711e+00 1.7100422e-01 1.8926289e-02
1.3146700e+00 1.5943200e-01 2.2333100e-02
1.3146700e+00 1.5943200e-01 2.2333100e-02
1.3168033e+00 1.4811533e-01 2.2060800e-02
1.3186233e+00 1.3764967e-01 2.1911267e-02
1.3201300e+00 1.2803500e-01 2.1884500e-02
1.3213233e+00 1.1927133e-01 2.1980500e-02
1.3222033e+00 1.1135867e-01 2.2199267e-02
1.3227700e+00 1.0429700e-01 2.2540800e-02
1.3227700e+00 1.0429700e-01 2.2540800e-02
1.3229467e+00 9.7673956e-02 2.3764933e-02
1.3230333e+00 9.1496222e-02 2.5098433e-02
1.3230300e+00 8.5763800e-02 2.6541300e-02
1.3229367e+00 8.0476689e-02 2.8093533e-02
1.3227533e+00 7.5634889e-02 2.9755133e-02
1.3224800e+00 7.1238400e-02 3.1526100e-02
1.3224800e+00 7.1238400e-02 3.1526100e-02
1.3222756e+00 6.6757678e-02 3.3179456e-02
1.3219722e+00 6.2943444e-02 3.4188156e-02
1.3215700e+00 5.9795700e-02 3.4552200e-02
1.3210689e+00 5.7314444e-02 3.4271589e-02
1.3204689e+00 5.5499678e-02 3.3346322e-02
1.3197700e+00 5.4351400e-02 3.1776400e-02
1.3197700e+00 5.4351400e-02 3.1776400e-02
1.3193478e+00 5.3835444e-02 3.0823394e-02
1.3177144e+00 5.4548744e-02 2.8641294e-02
1.3148700e+00 5.6491300e-02 2.5230100e-02
1.3108144e+00 5.9663111e-02 2.0589811e-02
1.3055478e+00 6.4064178e-02 1.4720428e-02
1.2990700e+00 6.9694500e-02 7.6219500e-03
1.2990700e+00 6.9694500e-02 7.6219500e-03
1.2876556e+00 8.6121944e-02 -3.2425056e-03
1.2769856e+00 1.0130078e-01 -1.3219256e-02
1.2670600e+00 1.1523100e-01 -2.2308300e-02
1.2578789e+00 1.2791261e-01 -3.0509639e-02
1.2494422e+00 1.3934561e-01 -3.7823272e-02
1.2417500e+00 1.4953000e-01 -4.4249200e-02
1.2417500e+00 1.4953000e-01 -4.4249200e-02
1.2350478e+00 1.4423226e-01 -3.7447456e-02
1.2275044e+00 1.3723126e-01 -2.9165489e-02
1.2191200e+00 1.2852700e-01 -1.9403300e-02
1.2098944e+00 1.1811949e-01 -8.1608889e-03
1.1998278e+00 1.0600872e-01 4.5617444e-03
1.1889200e+00 9.2194700e-02 1.8764600e-02
1.1889200e+00 9.2194700e-02 1.8764600e-02
1.1766133e+00 8.8494356e-02 2.8211756e-02
1.1636700e+00 8.5312056e-02 3.7291689e-02
1.1500900e+00 8.2647800e-02 4.6004400e-02
1.1358733e+00 8.0501589e-02 5.4349889e-02
1.1210200e+00 7.8873422e-02 6.2328156e-02
1.1055300e+00 7.7763300e-02 6.9939200e-02
1.1055300e+00 7.7763300e-02 6.9939200e-02
1.0899713e+00 7.8087144e-02 7.6046444e-02
1.0734680e+00 7.8299211e-02 8.1471444e-02
1.0560200e+00 7.8399500e-02 8.6214200e-02
1.0376273e+00 7.8388011e-02 9.0274711e-02
1.0182900e+00 7.8264744e-02 9.3652978e-02
9.9800800e-01 7.8029700e-02 9.6349000e-02
9.9800800e-01 7.8029700e-02 9.6349000e-02
9.7738800e-01 7.7496156e-02 9.7928922e-02
9.5733567e-01 7.6561389e-02 9.8513656e-02
9.3785100e-01 7.5225400e-02 9.8103200e-02
9.1893400e-01 7.3488189e-02 9.6697556e-02
9.0058467e-01 7.1349756e-02 9.4296722e-02
8.8280300e-01 6.8810100e-02 9.0900700e-02
8.8280300e-01 6.8810100e-02 9.0900700e-02
8.6523856e-01 6.5734989e-02 8.7052300e-02
8.4820989e-01 6.2133989e-02 8.3162233e-02
8.3171700e-01 5.8007100e-02 7.9230500e-02
8.1575989e-01 5.3354322e-02 7.5257100e-02
8.0033856e-01 4.8175656e-02 7.1242033e-02
7.8545300e-01 4.2471100e-02 6.7185300e-02
7.8545300e-01 4.2471100e-02 6.7185300e-02
7.7069900e-01 3.7028367e-02 6.2729422e-02
7.5601267e-01 3.1619867e-02 5.8079556e-02
7.4139400e-01 2.6245600e-02 5.3235700e-02
7.2684300e-01 2.0905567e-02 4.8197856e-02
7.1235967e-01 1.5599767e-02 4.2966022e-02
6.9794400e-01 1.0328200e-02 3.7540200e-02
6.9794400e-01 1.0328200e-02 3.7540200e-02
6.8284344e-01 4.3628389e-03 3.2417483e-02
6.6702311e-01 -1.9185844e-03 2.7249083e-02
6.5048300e-01 -8.5160700e-03 2.2035000e-02
6.3322311e-01 -1.5429618e-02 1.6775233e-02
6.1524344e-01 -2.2659228e-02 1.1469783e-02
5.9654400e-01 -3.0204900e-02 6.1186500e-03
5.9654400e-01 -3.0204900e-02 6.1186500e-03
5.7638878e-01 -3.7792700e-02 5.6451667e-04
5.5485844e-01 -4.4954433e-02 -4.8373000e-03
5.3195300e-01 -5.1690100e-02 -1.0086800e-02
5.0767244e-01 -5.7999700e-02 -1.5183983e-02
4.8201678e-01 -6.3883233e-02 -2.0128850e-02
4.5498600e-01 -6.9340700e-02 -2.4921400e-02
4.5498600e-01 -6.9340700e-02 -2.4921400e-02
4.2802500e-01 -7.4562778e-02 -2.7895778e-02
4.0101833e-01 -7.8605278e-02 -3.0075244e-02
3.7396600e-01 -8.1468200e-02 -3.1459800e-02
3.4686800e-01 -8.3151544e-02 -3.2049444e-02
3.1972433e-01 -8.3655311e-02 -3.1844178e-02
2.9253500e-01 -8.2979500e-02 -3.0844000e-02
2.9253500e-01 -8.2979500e-02 -3.0844000e-02
2.6627844e-01 -7.9163989e-02 -3.1146433e-02
2.4162011e-01 -7.4734122e-02 -3.1194367e-02
2.1856000e-01 -6.9689900e-02 -3.0987800e-02
1.9709811e-01 -6.4031322e-02 -3.0526733e-02
1.7723444e-01 -5.7758389e-02 -2.9811167e-02
1.5896900e-01 -5.0871100e-02 -2.8841100e-02
1.5896900e-01 -5.0871100e-02 -2.8841100e-02
1.4026261e-01 -4.3653922e-02 -2.7124178e-02
1.2267494e-01 -3.6656856e-02 -2.5146744e-02
1.0620600e-01 -2.9879900e-02 -2.2908800e-02
9.0855778e-02 -2.3323056e-02 -2.0410344e-02
7.6624278e-02 -1.6986322e-02 -1.7651378e-02
6.3511500e-02 -1.0869700e-02 -1.4631900e-02
6.3511500e-02 -1.0869700e-02 -1.4631900e-02
5.2482504e-02 -6.8566656e-03 -1.1217622e-02
4.2072271e-02 -3.1371816e-03 -7.8245456e-03
3.2280800e-02 2.8875200e-04 -4.4526700e-03
2.3108091e-02 3.4211351e-03 -1.1019956e-03
1.4554144e-02 6.2599678e-03 2.2274778e-03
6.6189600e-03 8.8052500e-03 5.5357500e-03
1.0604200e+00 5.1893200e-01 7.0553100e-02
1.0506016e+00 5.1373144e-01 7.3657522e-02
1.0393349e+00 5.0633711e-01 7.7432456e-02
1.0266200e+00 4.9674900e-01 8.1877900e-02
1.0124569e+00 4.8496711e-01 8.6993856e-02
9.9684556e-01 4.7099144e-01 9.2780322e-02
9.7978600e-01 4.5482200e-01 9.9237300e-02
9.7978600e-01 4.5482200e-01 9.9237300e-02
9.6587800e-01 4.4708867e-01 1.0281450e-01
9.5108133e-01 4.3907467e-01 1.0591040e-01
9.3539600e-01 4.3078000e-01 1.0852500e-01
9.1882200e-01 4.2220467e-01 1.1065830e-01
9.0135933e-01 4.1334867e-01 1.1231030e-01
8.8300800e-01 4.0421200e-01 1.1348100e-01
8.8300800e-01 4.0421200e-01 1.1348100e-01
8.6496789e-01 3.9304167e-01 1.1441200e-01
8.4560022e-01 3.8101300e-01 1.1404600e-01
8.2490500e-01 3.6812600e-01 1.1238300e-01
8.0288222e-01 3.5438067e-01 1.0942300e-01
7.7953189e-01 3.3977700e-01 1.0516600e-01
7.5485400e-01 3.2431500e-01 9.9612000e-02
7.5485400e-01 3.2431500e-01 9.9612000e-02
7.3285778e-01 3.0711356e-01 9.3368033e-02
7.1345278e-01 2.8977789e-01 8.8893967e-02
6.9663900e-01 2.7230800e-01 8.6189800e-02
6.8241644e-01 2.5470389e-01 8.5255533e-02
6.7078511e-01 2.3696556e-01 8.6091167e-02
6.6174500e-01 2.1909300e-01 8.8696700e-02
6.6174500e-01 2.1909300e-01 8.8696700e-02
6.5048400e-01 2.0230167e-01 8.9018700e-02
6.3901167e-01 1.8599033e-01 8.8714233e-02
6.2732800e-01 1.7015900e-01 8.7783300e-02
6.1543300e-01 1.5480767e-01 8.6225900e-02
6.0332667e-01 1.3993633e-01 8.4042033e-02
5.9100900e-01 1.2554500e-01 8.1231700e-02
5.9100900e-01 1.2554500e-01 8.1231700e-02
5.8022556e-01 1.1120996e-01 8.0755844e-02
5.6877756e-01 9.7176089e-02 7.9650711e-02
5.5666500e-01 8.3443400e-02 7.7916300e-02
5.4388789e-01 7.0011889e-02 7.5552611e-02
5.3044622e-01 5.6881556e-02 7.2559644e-02
5.1634000e-01 4.4052400e-02 6.8937400e-02
5.1634000e-01 4.4052400e-02 6.8937400e-02
5.0092244e-01 3.2101100e-02 6.3436633e-02
4.8384511e-01 2.0866167e-02 5.7363700e-02
4.6510800e-01 1.0347600e-02 5.0718600e-02
4.4471111e-01 5.4540000e-04 4.3501333e-02
4.2265444e-01 -8.5404333e-03 3.5711900e-02
3.9893800e-01 -1.6909900e-02 2.7350300e-02
3.9893800e-01 -1.6909900e-02 2.7350300e-02
3.7080978e-01 -2.4241122e-02 1.9012102e-02
3.4241678e-01 -2.9905956e-02 1.1820469e-02
3.1375900e-01 -3.3904400e-02 5.7754000e-03
2.8483644e-01 -3.6236456e-02 8.7689556e-04
2.5564911e-01 -3.6902122e-02 -2.8750444e-03
2.2619700e-01 -3.5901400e-02 -5.4804200e-03
2.2619700e-01 -3.5901400e-02 -5.4804200e-03
1.9943261e-01 -3.2250371e-02 -8.2617889e-03
1.7424228e-01 -2.8184538e-02 -1.0416982e-02
1.5062600e-01 -2.3703900e-02 -1.1946000e-02
1.2858378e-01 -1.8808458e-02 -1.2848842e-02
1.0811561e-01 -1.3498211e-02 -1.3125509e-02
8.9221500e-02 -7.7731600e-03 -1.2776000e-02
8.9221500e-02 -7.7731600e-03 -1.2776000e-02
7.2502689e-02 -5.0373428e-03 -1.0151033e-02
5.6660456e-02 -2.7285451e-03 -7.3561833e-03
4.1694800e-02 -8.4676700e-04 -4.3914500e-03
2.7605722e-02 6.0799156e-04 -1.2568333e-03
1.4393222e-02 1.6357306e-03 2.0476667e-03
2.0573000e-03 2.2364500e-03 5.5220500e-03
1.0598900e+00 5.6001300e-01 -2.0966000e-02
1.0736189e+00 5.6278978e-01 -1.3827698e-02
1.0866222e+00 5.6374211e-01 -7.0050098e-03
1.0989000e+00 5.6287000e-01 -4.9793600e-04
1.1104522e+00 5.6017344e-01 5.6935236e-03
1.1212789e+00 5.5565244e-01 1.1569369e-02
1.1313800e+00 5.4930700e-01 1.7129600e-02
1.1313800e+00 5.4930700e-01 1.7129600e-02
1.1399522e+00 5.3721522e-01 2.0386256e-02
1.1478156e+00 5.2388456e-01 2.1868756e-02
1.1549700e+00 5.0931500e-01 2.1577100e-02
1.1614156e+00 4.9350656e-01 1.9511289e-02
1.1671522e+00 4.7645922e-01 1.5671322e-02
1.1721800e+00 4.5817300e-01 1.0057200e-02
1.1721800e+00 4.5817300e-01 1.0057200e-02
1.1768289e+00 4.3847367e-01 5.1733667e-03
1.1804656e+00 4.2129233e-01 7.6959333e-04
1.1830900e+00 4.0662900e-01 -3.1541200e-03
1.1847022e+00 3.9448367e-01 -6.5977733e-03
1.1853022e+00 3.8485633e-01 -9.5613667e-03
1.1848900e+00 3.7774700e-01 -1.2044900e-02
1.1848900e+00 3.7774700e-01 -1.2044900e-02
1.1842933e+00 3.7823456e-01 -1.2683664e-02
1.1845500e+00 3.7911056e-01 -1.2787964e-02
1.1856600e+00 3.8037500e-01 -1.2357800e-02
1.1876233e+00 3.8202789e-01 -1.1393171e-02
1.1904400e+00 3.8406922e-01 -9.8940778e-03
1.1941100e+00 3.8649900e-01 -7.8605200e-03
1.0277300e+00 5.4690700e-01 2.2464800e-02
1.0356033e+00 5.4585089e-01 3.4304156e-02
1.0425067e+00 5.4335222e-01 4.4613656e-02
1.0484400e+00 5.3941100e-01 5.3393300e-02
1.0534033e+00 5.3402722e-01 6.0643089e-02
1.0573967e+00 5.2720089e-01 6.6363022e-02
1.0604200e+00 5.1893200e-01 7.0553100e-02
1.2417500e+00 1.4953000e-01 -4.4249200e-02
1.2309833e+00 1.3226888e-01 -4.2593444e-02
1.2198933e+00 1.1571998e-01 -4.0433244e-02
1.2084800e+00 9.9883300e-02 -3.7768600e-02
1.1967433e+00 8.4758844e-02 -3.4599511e-02
1.1846833e+00 7.0346611e-02 -3.0925978e-02
1.1723000e+00 5.6646600e-02 -2.6748000e-02
1.1723000e+00 5.6646600e-02 -2.6748000e-02
1.1656200e+00 4.8555133e-02 -2.5423314e-02
1.1576467e+00 4.1208933e-02 -2.2791980e-02
1.1483800e+00 3.4608000e-02 -1.8854000e-02
1.1378200e+00 2.8752333e-02 -1.3609373e-02
1.1259667e+00 2.3641933e-02 -7.0580989e-03
1.1128200e+00 1.9276800e-02 7.9982200e-04
1.1128200e+00 1.9276800e-02 7.9982200e-04
1.0980133e+00 1.4002106e-02 7.7372456e-03
1.0827667e+00 9.3460356e-03 1.4052205e-02
1.0670800e+00 5.3085900e-03 1.9744700e-02
1.0509533e+00 1.8897689e-03 2.4814731e-02
1.0343867e+00 -9.1042778e-04 2.9262298e-02
1.0173800e+00 -3.0920000e-03 3.3087400e-02
1.0173800e+00 -3.0920000e-03 3.3087400e-02
9.9386478e-01 -5.3437667e-03 3.6289144e-02
9.6983644e-01 -7.1705000e-03 3.8317611e-02
9.4529500e-01 -8.5722000e-03 3.9172800e-02
9.2024044e-01 -9.5488667e-03 3.8854711e-02
8.9467278e-01 -1.0100500e-02 3.7363344e-02
8.6859200e-01 -1.0227100e-02 3.4698700e-02
8.6859200e-01 -1.0227100e-02 3.4698700e-02
8.4673678e-01 -8.6820156e-03 3.2599133e-02
8.2520411e-01 -6.6535189e-03 3.0220933e-02
8.0399400e-01 -4.1416100e-03 2.7564100e-02
7.8310644e-01 -1.1462889e-03 2.4628633e-02
7.6254144e-01 2.3324444e-03 2.1414533e-02
7.4229900e-01 6.2945900e-03 1.7921800e-02
7.4229900e-01 6.2945900e-03 1.7921800e-02
7.2176089e-01 9.4461056e-03 1.3519286e-02
7.0100322e-01 1.2903109e-02 9.1094922e-03
6.8002600e-01 1.6665600e-02 4.6924200e-03
6.5882922e-01 2.0733579e-02 2.6806889e-04
6.3741289e-01 2.5107046e-02 -4.1635611e-03
6.1577700e-01 2.9786000e-02 -8.6024700e-03
6.1577700e-01 2.9786000e-02 -8.6024700e-03
5.9601333e-01 3.3586289e-02 -1.2766806e-02
5.7476700e-01 3.8002289e-02 -1.6282616e-02
5.5203800e-01 4.3034000e-02 -1.9149900e-02
5.2782633e-01 4.8681422e-02 -2.1368659e-02
5.0213200e-01 5.4944556e-02 -2.2938892e-02
4.7495500e-01 6.1823400e-02 -2.3860600e-02
4.7495500e-01 6.1823400e-02 -2.3860600e-02
4.4334822e-01 7.0717422e-02 -2.2990389e-02
4.1278656e-01 7.7843922e-02 -2.1766289e-02
3.8327000e-01 8.3202900e-02 -2.0188300e-02
3.5479856e-01 8.6794356e-02 -1.8256422e-02
3.2737222e-01 8.8618289e-02 -1.5970656e-02
3.0099100e-01 8.8674700e-02 -1.3331000e-02
3.0099100e-01 8.8674700e-02 -1.3331000e-02
2.7276678e-01 8.6629267e-02 -1.0554473e-02
2.4632044e-01 8.3570833e-02 -7.9039033e-03
2.2165200e-01 7.9499400e-02 -5.3792900e-03
1.9876144e-01 7.4414967e-02 -2.9806333e-03
1.7764878e-01 6.8317533e-02 -7.0793333e-04
1.5831400e-01 6.1207100e-02 1.4388100e-03
1.5831400e-01 6.1207100e-02 1.4388100e-03
1.3966781e-01 5.4317544e-02 4.7425278e-03
1.2190914e-01 4.7468178e-02 7.8160911e-03
1.0503800e-01 4.0659000e-02 1.0659500e-02
8.9054378e-02 3.3890011e-02 1.3272754e-02
7.3958278e-02 2.7161211e-02 1.5655854e-02
5.9749700e-02 2.0472600e-02 1.7808800e-02
5.9749700e-02 2.0472600e-02 1.7808800e-02
5.2057060e-02 1.7506991e-02 1.4930914e-02
4.4109093e-02 1.3864618e-02 1.2072724e-02
3.5905800e-02 9.5454800e-03 9.2342300e-03
2.7447180e-02 4.5495778e-03 6.4154316e-03
1.8733233e-02 -1.1230889e-03 3.6163289e-03
9.7639600e-03 -7.4725200e-03 8.3692200e-04
3.9348600e+00 2.7440000e-01 8.8765100e-02
3.9281200e+00 2.5287600e-01 9.5450944e-02
3.9208100e+00 2.3207333e-01 1.0197391e-01
3.9129300e+00 2.1199200e-01 1.0833400e-01
3.9044800e+00 1.9263200e-01 1.1453121e-01
3.8954600e+00 1.7399333e-01 1.2056554e-01
3.8858700e+00 1.5607600e-01 1.2643700e-01
3.8858700e+00 1.5607600e-01 1.2643700e-01
3.8773911e+00 1.4403678e-01 1.3039333e-01
3.8686944e+00 1.3523278e-01 1.3404967e-01
3.8597800e+00 1.2966400e-01 1.3740600e-01
3.8506478e+00 1.2733044e-01 1.4046233e-01
3.8412978e+00 1.2823211e-01 1.4321867e-01
3.8317300e+00 1.3236900e-01 1.4567500e-01
3.8317300e+00 1.3236900e-01 1.4567500e-01
3.8220811e+00 1.3603778e-01 1.4766356e-01
3.8113178e+00 1.4013644e-01 1.4980589e-01
3.7994400e+00 1.4466500e-01 1.5210200e-01
3.7864478e+00 1.4962344e-01 1.5455189e-01
3.7723411e+00 1.5501178e-01 1.5715556e-01
3.7571200e+00 1.6083000e-01 1.5991300e-01
3.7571200e+00 1.6083000e-01 1.5991300e-01
3.7366822e+00 1.6739689e-01 1.6473644e-01
3.7172156e+00 1.7078122e-01 1.6940378e-01
3.6987200e+00 1.7098300e-01 1.7391500e-01
3.6811956e+00 1.6800222e-01 1.7827011e-01
3.6646422e+00 1.6183889e-01 1.8246911e-01
3.6490600e+00 1.5249300e-01 1.8651200e-01
3.6490600e+00 1.5249300e-01 1.8651200e-01
3.6367956e+00 1.4172151e-01 1.8777878e-01
3.6251856e+00 1.3054984e-01 1.8757544e-01
3.6142300e+00 1.1897800e-01 1.8590200e-01
3.6039289e+00 1.0700598e-01 1.8275844e-01
3.5942822e+00 9.4633778e-02 1.7814478e-01
3.5852900e+00 8.1861400e-02 1.7206100e-01
3.5852900e+00 8.1861400e-02 1.7206100e-01
3.5689978e+00 9.3568000e-02 1.7330089e-01
3.5513378e+00 1.0464853e-01 1.7367156e-01
3.5323100e+00 1.1510300e-01 1.7317300e-01
3.5119144e+00 1.2493140e-01 1.7180522e-01
3.4901511e+00 1.3413373e-01 1.6956822e-01
3.4670200e+00 1.4271000e-01 1.6646200e-01
3.4670200e+00 1.4271000e-01 1.6646200e-01
3.4448056e+00 1.4802522e-01 1.5971033e-01
3.4241956e+00 1.5073489e-01 1.5229100e-01
3.4051900e+00 1.5083900e-01 1.4420400e-01
3.3877889e+00 1.4833756e-01 1.3544933e-01
3.3719922e+00 1.4323056e-01 1.2602700e-01
3.3578000e+00 1.3551800e-01 1.1593700e-01
3.3578000e+00 1.3551800e-01 1.1593700e-01
3.3457122e+00 1.2517769e-01 1.0976573e-01
3.3325089e+00 1.1448536e-01 1.0305697e-01
3.3181900e+00 1.0344100e-01 9.5810700e-02
3.3027556e+00 9.2044622e-02 8.8026933e-02
3.2862056e+00 8.0296222e-02 7.9705667e-02
3.2685400e+00 6.8195800e-02 7.0846900e-02
3.2685400e+00 6.8195800e-02 7.0846900e-02
3.2465744e+00 5.6502122e-02 5.9322756e-02
3.2225811e+00 4.7740389e-02 4.8819656e-02
3.1965600e+00 4.1910600e-02 3.9337600e-02
3.1685111e+00 3.9012756e-02 3.0876589e-02
3.1384344e+00 3.9046856e-02 2.3436622e-02
3.1063300e+00 4.2012900e-02 1.7017700e-02
3.1063300e+00 4.2012900e-02 1.7017700e-02
3.0740656e+00 5.1179078e-02 1.4337756e-02
3.0447856e+00 6.0243478e-02 1.2304456e-02
3.0184900e+00 6.9206100e-02 1.0917800e-02
2.9951789e+00 7.8066944e-02 1.0177789e-02
2.9748522e+00 8.6826011e-02 1.0084422e-02
2.9575100e+00 9.5483300e-02 1.0637700e-02
3.0126200e+00 1.2709700e-01 -8.6031100e-03
3.0078433e+00 1.1829074e-01 -7.7605944e-03
3.0013033e+00 1.1089941e-01 -5.9723644e-03
2.9930000e+00 1.0492300e-01 -3.2384200e-03
2.9829333e+00 1.0036151e-01 4.4123889e-04
2.9711033e+00 9.7214944e-02 5.0666122e-03
2.9575100e+00 9.5483300e-02 1.0637700e-02
3.7461000e+00 2.9934000e-01 8.8370400e-02
3.7344378e+00 2.9047633e-01 8.0451767e-02
3.7227478e+00 2.8143567e-01 7.2094267e-02
3.7110300e+00 2.7221800e-01 6.3297900e-02
3.6992844e+00 2.6282333e-01 5.4062667e-02
3.6875111e+00 2.5325167e-01 4.4388567e-02
3.6757100e+00 2.4350300e-01 3.4275600e-02
3.6757100e+00 2.4350300e-01 3.4275600e-02
3.6644144e+00 2.3155689e-01 2.4202733e-02
3.6533778e+00 2.2035989e-01 1.6721733e-02
3.6426000e+00 2.0991200e-01 1.1832600e-02
3.6320811e+00 2.0021322e-01 9.5353333e-03
3.6218211e+00 1.9126356e-01 9.8299333e-03
3.6118200e+00 1.8306300e-01 1.2716400e-02
3.6118200e+00 1.8306300e-01 1.2716400e-02
3.5961300e+00 1.7938300e-01 2.5246811e-02
3.5792933e+00 1.7684367e-01 3.7960678e-02
3.5613100e+00 1.7544500e-01 5.0858000e-02
3.5421800e+00 1.7518700e-01 6.3938778e-02
3.5219033e+00 1.7606967e-01 7.7203011e-02
3.5004800e+00 1.7809300e-01 9.0650700e-02
3.5004800e+00 1.7809300e-01 9.0650700e-02
3.4798678e+00 1.8276022e-01 1.0556328e-01
3.4583544e+00 1.8634689e-01 1.2070504e-01
3.4359400e+00 1.8885300e-01 1.3607600e-01
3.4126244e+00 1.9027856e-01 1.5167614e-01
3.3884078e+00 1.9062356e-01 1.6750548e-01
3.3632900e+00 1.8988800e-01 1.8356400e-01
3.3632900e+00 1.8988800e-01 1.8356400e-01
3.3370833e+00 1.7685133e-01 1.8131561e-01
3.3088167e+00 1.6557733e-01 1.7312228e-01
3.2784900e+00 1.5606600e-01 1.5898400e-01
3.2461033e+00 1.4831733e-01 1.3890078e-01
3.2116567e+00 1.4233133e-01 1.1287261e-01
3.1751500e+00 1.3810800e-01 8.0899500e-02
3.1751500e+00 1.3810800e-01 8.0899500e-02
3.1420756e+00 1.3757200e-01 5.6990957e-02
3.1113956e+00 1.3651633e-01 3.6678990e-02
3.0831100e+00 1.3494100e-01 1.9963600e-02
3.0572189e+00 1.3284600e-01 6.8447867e-03
3.0337222e+00 1.3023133e-01 -2.6774500e-03
3.0126200e+00 1.2709700e-01 -8.6031100e-03
2.1996600e+00 2.1618900e-01 -1.9845500e-02
2.2223833e+00 1.9827756e-01 -1.6318956e-02
2.2491800e+00 1.8149389e-01 -1.4690989e-02
2.2800500e+00 1.6583800e-01 -1.4961600e-02
2.3149933e+00 1.5130989e-01 -1.7130789e-02
2.3540100e+00 1.3790956e-01 -2.1198556e-02
2.3971000e+00 1.2563700e-01 -2.7164900e-02
2.3971000e+00 1.2563700e-01 -2.7164900e-02
2.4389567e+00 1.2633956e-01 -2.7671267e-02
2.4794633e+00 1.3042456e-01 -2.6897700e-02
2.5186200e+00 1.3789200e-01 -2.4844200e-02
2.5564267e+00 1.4874189e-01 -2.1510767e-02
2.5928833e+00 1.6297422e-01 -1.6897400e-02
2.6279900e+00 1.8058900e-01 -1.1004100e-02
2.6279900e+00 1.8058900e-01 -1.1004100e-02
2.6605489e+00 1.9789467e-01 -7.6185244e-03
2.6939689e+00 2.1159533e-01 -4.4974144e-03
2.7282500e+00 2.2169100e-01 -1.6407700e-03
2.7633922e+00 2.2818167e-01 9.5140889e-04
2.7993956e+00 2.3106733e-01 3.2791222e-03
2.8362600e+00 2.3034800e-01 5.3423700e-03
2.8362600e+00 2.3034800e-01 5.3423700e-03
2.8736867e+00 2.1644533e-01 4.8339011e-03
2.9079000e+00 2.0122033e-01 3.5991211e-03
2.9389000e+00 1.8467300e-01 1.6380300e-03
2.9666867e+00 1.6680333e-01 -1.0493722e-03
2.9912600e+00 1.4761133e-01 -4.4630856e-03
3.0126200e+00 1.2709700e-01 -8.6031100e-03
1.8132000e+00 6.5428500e-01 -1.5557300e-02