# vtk DataFile Version 2.0
test
ASCII
DATASET POLYDATA
POINTS 4361 float
5.0981822e+00 7.0456605e+00 1.1858749e+01
5.2102623e+00 7.1035487e+00 1.1733710e+01
5.3241632e+00 7.1604006e+00 1.1609944e+01
5.4398850e+00 7.2162161e+00 1.1487450e+01
5.5574277e+00 7.2709952e+00 1.1366228e+01
5.6767913e+00 7.3247380e+00 1.1246278e+01
5.7979758e+00 7.3774444e+00 1.1127600e+01
5.7979758e+00 7.3774444e+00 1.1127600e+01
5.9226801e+00 7.4364025e+00 1.1012777e+01
6.0535270e+00 7.4937419e+00 1.0906171e+01
6.1905165e+00 7.5494625e+00 1.0807783e+01
6.3336486e+00 7.6035645e+00 1.0717614e+01
6.4829233e+00 7.6560477e+00 1.0635662e+01
6.6383406e+00 7.7069121e+00 1.0561929e+01
6.6383406e+00 7.7069121e+00 1.0561929e+01
6.8048791e+00 7.7521328e+00 1.0510244e+01
6.9734096e+00 7.7949285e+00 1.0473150e+01
7.1439320e+00 7.8352990e+00 1.0450646e+01
7.3164464e+00 7.8732445e+00 1.0442733e+01
7.4909527e+00 7.9087650e+00 1.0449410e+01
7.6674511e+00 7.9418604e+00 1.0470678e+01
7.6674511e+00 7.9418604e+00 1.0470678e+01
7.8420812e+00 7.9707344e+00 1.0494448e+01
8.0163656e+00 7.9974177e+00 1.0521936e+01
8.1903042e+00 8.0219102e+00 1.0553142e+01
8.3638971e+00 8.0442119e+00 1.0588065e+01
8.5371442e+00 8.0643229e+00 1.0626706e+01
8.7100456e+00 8.0822431e+00 1.0669065e+01
8.7100456e+00 8.0822431e+00 1.0669065e+01
8.8828443e+00 8.0981442e+00 1.0712669e+01
9.0565519e+00 8.1119339e+00 1.0752197e+01
9.2311682e+00 8.1236121e+00 1.0787647e+01
9.4066934e+00 8.1331788e+00 1.0819019e+01
9.5831275e+00 8.1406341e+00 1.0846315e+01
9.7604703e+00 8.1459779e+00 1.0869534e+01
9.7604703e+00 8.1459779e+00 1.0869534e+01
9.9405626e+00 8.1484008e+00 1.0883984e+01
1.0118906e+01 8.1487471e+00 1.0884274e+01
1.0295499e+01 8.1470167e+00 1.0870402e+01
1.0470344e+01 8.1432097e+00 1.0842370e+01
1.0643439e+01 8.1373261e+00 1.0800176e+01
1.0814785e+01 8.1293659e+00 1.0743822e+01
1.0814785e+01 8.1293659e+00 1.0743822e+01
1.0978871e+01 8.1190135e+00 1.0669309e+01
1.1134532e+01 8.1092323e+00 1.0583061e+01
1.1281767e+01 8.1000223e+00 1.0485076e+01
1.1420576e+01 8.0913836e+00 1.0375356e+01
1.1550960e+01 8.0833160e+00 1.0253900e+01
1.1672918e+01 8.0758196e+00 1.0120707e+01
1.1672918e+01 8.0758196e+00 1.0120707e+01
1.1781815e+01 8.0849224e+00 9.9790537e+00
1.1889273e+01 8.0916908e+00 9.8362134e+00
1.1995294e+01 8.0961248e+00 9.6921867e+00
1.2099876e+01 8.0982244e+00 9.5469737e+00
1.2203020e+01 8.0979896e+00 9.4005742e+00
1.2304726e+01 8.0954204e+00 9.2529883e+00
1.2304726e+01 8.0954204e+00 9.2529883e+00
1.2200207e+01 8.0234135e+00 9.1183784e+00
1.2095875e+01 7.9483243e+00 8.9855967e+00
1.1991728e+01 7.8701528e+00 8.8546433e+00
1.1887767e+01 7.7888990e+00 8.7255182e+00
1.1783992e+01 7.7045630e+00 8.5982212e+00
1.1680403e+01 7.6171446e+00 8.4727525e+00
1.1680403e+01 7.6171446e+00 8.4727525e+00
1.1576847e+01 7.5440232e+00 8.3382847e+00
1.1477106e+01 7.4698982e+00 8.2018706e+00
1.1381179e+01 7.3947697e+00 8.0635104e+00
1.1289065e+01 7.3186377e+00 7.9232040e+00
1.1200766e+01 7.2415021e+00 7.7809515e+00
1.1116280e+01 7.1633630e+00 7.6367528e+00
1.1116280e+01 7.1633630e+00 7.6367528e+00
1.1038492e+01 7.0857422e+00 7.4877753e+00
1.0968635e+01 7.0059147e+00 7.3370991e+00
1.0906709e+01 6.9238805e+00 7.1847243e+00
1.0852714e+01 6.8396394e+00 7.0306507e+00
1.0806650e+01 6.7531916e+00 6.8748785e+00
1.0768517e+01 6.6645371e+00 6.7174076e+00
1.0768517e+01 6.6645371e+00 6.7174076e+00
1.0742890e+01 6.5735190e+00 6.5591471e+00
1.0727347e+01 6.4810201e+00 6.4016520e+00
1.0721889e+01 6.3870405e+00 6.2449221e+00
1.0726515e+01 6.2915801e+00 6.0889576e+00
1.0741227e+01 6.1946389e+00 5.9337585e+00
1.0766023e+01 6.0962170e+00 5.7793247e+00
1.0766023e+01 6.0962170e+00 5.7793247e+00
1.0799388e+01 5.9968796e+00 5.6280374e+00
1.0839008e+01 5.8962928e+00 5.4798403e+00
1.0884881e+01 5.7944567e+00 5.3347332e+00
1.0937009e+01 5.6913711e+00 5.1927162e+00
1.0995390e+01 5.5870363e+00 5.0537894e+00
1.1060026e+01 5.4814520e+00 4.9179526e+00
1.1060026e+01 5.4814520e+00 4.9179526e+00
1.1127547e+01 5.3755520e+00 4.7844290e+00
1.1196650e+01 5.2687534e+00 4.6525230e+00
1.1267337e+01 5.1610563e+00 4.5222347e+00
1.1339606e+01 5.0524605e+00 4.3935641e+00
1.1413458e+01 4.9429661e+00 4.2665111e+00
1.1488893e+01 4.8325732e+00 4.1410757e+00
1.1488893e+01 4.8325732e+00 4.1410757e+00
1.1563270e+01 4.7200687e+00 4.0171056e+00
1.1634979e+01 4.6049502e+00 3.8939334e+00
1.1704020e+01 4.4872175e+00 3.7715592e+00
1.1770394e+01 4.3668707e+00 3.6499830e+00
1.1834100e+01 4.2439098e+00 3.5292048e+00
1.1895138e+01 4.1183349e+00 3.4092245e+00
1.1895138e+01 4.1183349e+00 3.4092245e+00
1.1951377e+01 3.9898540e+00 3.2894680e+00
1.2000503e+01 3.8591438e+00 3.1699169e+00
1.2042517e+01 3.7262041e+00 3.0505712e+00
1.2077418e+01 3.5910350e+00 2.9314309e+00
1.2105207e+01 3.4536365e+00 2.8124961e+00
1.2125884e+01 3.3140085e+00 2.6937667e+00
1.2125884e+01 3.3140085e+00 2.6937667e+00
1.2138540e+01 3.1709877e+00 2.5769365e+00
1.2141728e+01 3.0271888e+00 2.4618955e+00
1.2135450e+01 2.8826118e+00 2.3486439e+00
1.2119704e+01 2.7372567e+00 2.2371816e+00
1.2094492e+01 2.5911235e+00 2.1275087e+00
1.2059813e+01 2.4442123e+00 2.0196250e+00
1.2059813e+01 2.4442123e+00 2.0196250e+00
1.2014881e+01 2.3005019e+00 1.9116242e+00
1.1963056e+01 2.1579863e+00 1.8059774e+00
1.1904337e+01 2.0166654e+00 1.7026846e+00
1.1838724e+01 1.8765392e+00 1.6017458e+00
1.1766218e+01 1.7376077e+00 1.5031611e+00
1.1686819e+01 1.5998709e+00 1.4069303e+00
1.1686819e+01 1.5998709e+00 1.4069303e+00
1.1599361e+01 1.4645160e+00 1.3145463e+00
1.1508647e+01 1.3302110e+00 1.2241884e+00
1.1414675e+01 1.1969557e+00 1.1358566e+00
1.1317447e+01 1.0647503e+00 1.0495509e+00
1.1216961e+01 9.3359472e-01 9.6527133e-01
1.1113219e+01 8.0348897e-01 8.8301787e-01
1.1113219e+01 8.0348897e-01 8.8301787e-01
1.1009873e+01 6.7156572e-01 8.0208097e-01
1.0906005e+01 5.3983379e-01 7.2170522e-01
1.0801615e+01 4.0829317e-01 6.4189063e-01
1.0696703e+01 2.7694387e-01 5.6263718e-01
1.0591269e+01 1.4578588e-01 4.8394489e-01
1.0485314e+01 1.4819200e-02 4.0581374e-01
2.8321300e+00 5.9788301e+00 1.1737884e+01
2.7951509e+00 5.9345102e+00 1.1555224e+01
2.7582775e+00 5.8863350e+00 1.1373677e+01
2.7215098e+00 5.8343045e+00 1.1193244e+01
2.6848479e+00 5.7784187e+00 1.1013923e+01
2.6482917e+00 5.7186777e+00 1.0835716e+01
2.6118412e+00 5.6550813e+00 1.0658622e+01
2.6118412e+00 5.6550813e+00 1.0658622e+01
2.5849018e+00 5.6028914e+00 1.0475936e+01
2.5645796e+00 5.5485277e+00 1.0293632e+01
2.5508746e+00 5.4919901e+00 1.0111710e+01
2.5437867e+00 5.4332786e+00 9.9301688e+00
2.5433161e+00 5.3723932e+00 9.7490097e+00
2.5494626e+00 5.3093339e+00 9.5682322e+00
2.5494626e+00 5.3093339e+00 9.5682322e+00
2.5677745e+00 5.2408588e+00 9.3893878e+00
2.5955162e+00 5.1690379e+00 9.2146331e+00
2.6326876e+00 5.0938710e+00 9.0439680e+00
2.6792887e+00 5.0153581e+00 8.8773925e+00
2.7353196e+00 4.9334993e+00 8.7149067e+00
2.8007802e+00 4.8482945e+00 8.5565105e+00
2.8007802e+00 4.8482945e+00 8.5565105e+00
2.8816595e+00 4.7586862e+00 8.4070322e+00
2.9726467e+00 4.6674245e+00 8.2672624e+00
3.0737416e+00 4.5745093e+00 8.1372012e+00
3.1849443e+00 4.4799406e+00 8.0168484e+00
3.3062549e+00 4.3837184e+00 7.9062042e+00
3.4376733e+00 4.2858427e+00 7.8052684e+00
3.4376733e+00 4.2858427e+00 7.8052684e+00
3.5680906e+00 4.1884765e+00 7.7066187e+00
3.6992045e+00 4.0901588e+00 7.6100510e+00
3.8310152e+00 3.9908894e+00 7.5155655e+00
3.9635226e+00 3.8906684e+00 7.4231619e+00
4.0967267e+00 3.7894958e+00 7.3328404e+00
4.2306275e+00 3.6873716e+00 7.2446010e+00
4.2306275e+00 3.6873716e+00 7.2446010e+00
4.3661323e+00 3.5830791e+00 7.1605973e+00
4.4982366e+00 3.4762031e+00 7.0749145e+00
4.6269402e+00 3.3667437e+00 6.9875526e+00
4.7522434e+00 3.2547007e+00 6.8985116e+00
4.8741459e+00 3.1400742e+00 6.8077915e+00
4.9926479e+00 3.0228642e+00 6.7153923e+00
4.9926479e+00 3.0228642e+00 6.7153923e+00
5.1051389e+00 2.9029338e+00 6.6171958e+00
5.2076819e+00 2.7803863e+00 6.5138534e+00
5.3002768e+00 2.6552218e+00 6.4053653e+00
5.3829236e+00 2.5274402e+00 6.2917313e+00
5.4556224e+00 2.3970415e+00 6.1729515e+00
5.5183732e+00 2.2640257e+00 6.0490260e+00
5.5183732e+00 2.2640257e+00 6.0490260e+00
5.5629632e+00 2.1288482e+00 5.9189688e+00
5.5952030e+00 1.9944388e+00 5.7868201e+00
5.6150928e+00 1.8607975e+00 5.6525799e+00
5.6226325e+00 1.7279244e+00 5.5162482e+00
5.6178221e+00 1.5958194e+00 5.3778249e+00
5.6006616e+00 1.4644826e+00 5.2373102e+00
5.6006616e+00 1.4644826e+00 5.2373102e+00
5.5749761e+00 1.3376559e+00 5.0948636e+00
5.5436276e+00 1.2125596e+00 4.9524426e+00
5.5066160e+00 1.0891937e+00 4.8100472e+00
5.4639415e+00 9.6755827e-01 4.6676774e+00
5.4156039e+00 8.4765325e-01 4.5253331e+00
5.3616034e+00 7.2947865e-01 4.3830144e+00
5.3616034e+00 7.2947865e-01 4.3830144e+00
5.3058910e+00 6.0850752e-01 4.2442662e+00
5.2490124e+00 4.8755337e-01 4.1058482e+00
5.1909677e+00 3.6661619e-01 3.9677603e+00
5.1317568e+00 2.4569599e-01 3.8300027e+00
5.0713798e+00 1.2479276e-01 3.6925752e+00
5.0098367e+00 3.9065100e-03 3.5554779e+00
1.6121300e+00 5.7860304e+00 1.3880253e+01
1.6825330e+00 5.8934400e+00 1.3731793e+01
1.7651900e+00 5.9997156e+00 1.3593010e+01
1.8601011e+00 6.1048572e+00 1.3463906e+01
1.9672661e+00 6.2088648e+00 1.3344480e+01
2.0866852e+00 6.3117384e+00 1.3234732e+01
2.2183582e+00 6.4134779e+00 1.3134663e+01
2.2183582e+00 6.4134779e+00 1.3134663e+01
2.3818741e+00 6.5010953e+00 1.3075686e+01
2.5514147e+00 6.5781975e+00 1.3030195e+01
2.7269800e+00 6.6447844e+00 1.2998190e+01
2.9085700e+00 6.7008560e+00 1.2979672e+01
3.0961846e+00 6.7464123e+00 1.2974641e+01
3.2898240e+00 6.7814534e+00 1.2983096e+01
3.2898240e+00 6.7814534e+00 1.2983096e+01
3.4844368e+00 6.8095931e+00 1.2991619e+01
3.6751438e+00 6.8366019e+00 1.2982085e+01
3.8619448e+00 6.8624799e+00 1.2954493e+01
4.0448399e+00 6.8872271e+00 1.2908844e+01
4.2238291e+00 6.9108434e+00 1.2845138e+01
4.3989125e+00 6.9333288e+00 1.2763374e+01
4.3989125e+00 6.9333288e+00 1.2763374e+01
4.5447849e+00 6.9586559e+00 1.2637269e+01
4.6789263e+00 6.9813409e+00 1.2501298e+01
4.8013367e+00 7.0013839e+00 1.2355461e+01
4.9120162e+00 7.0187848e+00 1.2199756e+01
[...]
POINT_DATA 4361
VECTORS U float
1.8012800e+00 5.8281200e-01 -8.5087600e-03
1.8175244e+00 5.6920411e-01 1.4670000e-04
1.8329544e+00 5.5423711e-01 7.7550533e-03
1.8475700e+00 5.3791100e-01 1.4316300e-02
1.8613711e+00 5.2022578e-01 1.9830440e-02
1.8743578e+00 5.0118144e-01 2.4297473e-02
1.8865300e+00 4.8077800e-01 2.7717400e-02
1.8865300e+00 4.8077800e-01 2.7717400e-02
1.8960444e+00 4.6542833e-01 3.0768800e-02
1.9045111e+00 4.4892767e-01 3.1912833e-02
1.9119300e+00 4.3127600e-01 3.1149500e-02
1.9183011e+00 4.1247333e-01 2.8478800e-02
1.9236244e+00 3.9251967e-01 2.3900733e-02
1.9279000e+00 3.7141500e-01 1.7415300e-02
1.9279000e+00 3.7141500e-01 1.7415300e-02
1.9347978e+00 3.4736711e-01 1.4432422e-02
1.9409411e+00 3.2475711e-01 1.3267222e-02
1.9463300e+00 3.0358500e-01 1.3919700e-02
1.9509644e+00 2.8385078e-01 1.6389856e-02
1.9548444e+00 2.6555444e-01 2.0677689e-02
1.9579700e+00 2.4869600e-01 2.6783200e-02
1.9579700e+00 2.4869600e-01 2.6783200e-02
1.9606511e+00 2.3222278e-01 2.7125033e-02
1.9629311e+00 2.1695078e-01 2.7509033e-02
1.9648100e+00 2.0288000e-01 2.7935200e-02
1.9662878e+00 1.9001044e-01 2.8403533e-02
1.9673644e+00 1.7834211e-01 2.8914033e-02
1.9680400e+00 1.6787500e-01 2.9466700e-02
1.9680400e+00 1.6787500e-01 2.9466700e-02
1.9681622e+00 1.5801178e-01 3.1425467e-02
1.9681922e+00 1.4879344e-01 3.3359133e-02
1.9681300e+00 1.4022000e-01 3.5267700e-02
1.9679756e+00 1.3229144e-01 3.7151167e-02
1.9677289e+00 1.2500778e-01 3.9009533e-02
1.9673900e+00 1.1836900e-01 4.0842800e-02
1.9673900e+00 1.1836900e-01 4.0842800e-02
1.9670944e+00 1.1166614e-01 4.2630422e-02
1.9666144e+00 1.0590048e-01 4.3451056e-02
1.9659500e+00 1.0107200e-01 4.3304700e-02
1.9651011e+00 9.7180711e-02 4.2191356e-02
1.9640678e+00 9.4226611e-02 4.0111022e-02
1.9628500e+00 9.2209700e-02 3.7063700e-02
1.9628500e+00 9.2209700e-02 3.7063700e-02
1.9618656e+00 9.0955833e-02 3.4762746e-02
1.9592856e+00 9.1902133e-02 3.0979679e-02
1.9551100e+00 9.5048600e-02 2.5714500e-02
1.9493389e+00 1.0039523e-01 1.8967209e-02
1.9419722e+00 1.0794203e-01 1.0737806e-02
1.9330100e+00 1.1768900e-01 1.0262900e-03
1.9330100e+00 1.1768900e-01 1.0262900e-03
1.9172956e+00 1.4446844e-01 -1.2971417e-02
1.9027822e+00 1.6921311e-01 -2.5837647e-02
1.8894700e+00 1.9192300e-01 -3.7572400e-02
1.8773589e+00 2.1259811e-01 -4.8175677e-02
1.8664489e+00 2.3123844e-01 -5.7647477e-02
1.8567400e+00 2.4784400e-01 -6.5987800e-02
1.8567400e+00 2.4784400e-01 -6.5987800e-02
1.8470833e+00 2.3948500e-01 -5.6357811e-02
1.8362700e+00 2.2855833e-01 -4.4290411e-02
1.8243000e+00 2.1506400e-01 -2.9785600e-02
1.8111733e+00 1.9900200e-01 -1.2843378e-02
1.7968900e+00 1.8037233e-01 6.5362556e-03
1.7814500e+00 1.5917500e-01 2.8353300e-02
1.7814500e+00 1.5917500e-01 2.8353300e-02
1.7635278e+00 1.5332556e-01 4.2507389e-02
1.7446511e+00 1.4803122e-01 5.6274156e-02
1.7248200e+00 1.4329200e-01 6.9653600e-02
1.7040344e+00 1.3910789e-01 8.2645722e-02
1.6822944e+00 1.3547889e-01 9.5250522e-02
1.6596000e+00 1.3240500e-01 1.0746800e-01
1.6596000e+00 1.3240500e-01 1.0746800e-01
1.6365289e+00 1.3213500e-01 1.1718800e-01
1.6120889e+00 1.3169833e-01 1.2595800e-01
1.5862800e+00 1.3109500e-01 1.3377800e-01
1.5591022e+00 1.3032500e-01 1.4064800e-01
1.5305556e+00 1.2938833e-01 1.4656800e-01
1.5006400e+00 1.2828500e-01 1.5153800e-01
1.5006400e+00 1.2828500e-01 1.5153800e-01
1.4708544e+00 1.2672856e-01 1.5497889e-01
1.4412744e+00 1.2466889e-01 1.5679822e-01
1.4119000e+00 1.2210600e-01 1.5699600e-01
1.3827311e+00 1.1903989e-01 1.5557222e-01
1.3537678e+00 1.1547056e-01 1.5252689e-01
1.3250100e+00 1.1139800e-01 1.4786000e-01
1.3250100e+00 1.1139800e-01 1.4786000e-01
1.2966778e+00 1.0651258e-01 1.4226233e-01
1.2692278e+00 1.0077098e-01 1.3657733e-01
1.2426600e+00 9.4173200e-02 1.3080500e-01
1.2169744e+00 8.6719244e-02 1.2494533e-01
1.1921711e+00 7.8409111e-02 1.1899833e-01
1.1682500e+00 6.9242800e-02 1.1296400e-01
1.1682500e+00 6.9242800e-02 1.1296400e-01
1.1443478e+00 6.0183267e-02 1.0643253e-01
1.1205144e+00 5.1233467e-02 9.9522900e-02
1.0967500e+00 4.2393400e-02 9.2235100e-02
1.0730544e+00 3.3663067e-02 8.4569133e-02
1.0494278e+00 2.5042467e-02 7.6525000e-02
1.0258700e+00 1.6531600e-02 6.8102700e-02
1.0258700e+00 1.6531600e-02 6.8102700e-02
1.0012580e+00 7.3557667e-03 5.9873344e-02
9.7550000e-01 -2.3302667e-03 5.1700511e-02
9.4859600e-01 -1.2526500e-02 4.3584200e-02
9.2054600e-01 -2.3232933e-02 3.5524411e-02
8.9135000e-01 -3.4449567e-02 2.7521144e-02
8.6100800e-01 -4.6176400e-02 1.9574400e-02
8.6100800e-01 -4.6176400e-02 1.9574400e-02
8.2874078e-01 -5.7975944e-02 1.1798339e-02
7.9474211e-01 -6.8818578e-02 4.2568556e-03
7.5901200e-01 -7.8704300e-02 -3.0500500e-03
7.2155044e-01 -8.7633111e-02 -1.0122378e-02
6.8235744e-01 -9.5605011e-02 -1.6960128e-02
6.4143300e-01 -1.0262000e-01 -2.3563300e-02
6.4143300e-01 -1.0262000e-01 -2.3563300e-02
6.0064100e-01 -1.0899400e-01 -2.7828067e-02
5.6027000e-01 -1.1368200e-01 -3.0943600e-02
5.2032000e-01 -1.1668400e-01 -3.2909900e-02
4.8079100e-01 -1.1800000e-01 -3.3726967e-02
4.4168300e-01 -1.1763000e-01 -3.3394800e-02
4.0299600e-01 -1.1557400e-01 -3.1913400e-02
4.0299600e-01 -1.1557400e-01 -3.1913400e-02
3.6643822e-01 -1.0937497e-01 -3.2318533e-02
3.3229089e-01 -1.0248973e-01 -3.2465400e-02
3.0055400e-01 -9.4918300e-02 -3.2354000e-02
2.7122756e-01 -8.6660667e-02 -3.1984333e-02
2.4431156e-01 -7.7716833e-02 -3.1356400e-02
2.1980600e-01 -6.8086800e-02 -3.0470200e-02
2.1980600e-01 -6.8086800e-02 -3.0470200e-02
1.9431668e-01 -5.8065822e-02 -2.8277611e-02
1.7033934e-01 -4.8355656e-02 -2.5791911e-02
1.4787400e-01 -3.8956300e-02 -2.3013100e-02
1.2692064e-01 -2.9867756e-02 -1.9941178e-02
1.0747928e-01 -2.1090022e-02 -1.6576144e-02
8.9549900e-02 -1.2623100e-02 -1.2918000e-02
8.9549900e-02 -1.2623100e-02 -1.2918000e-02
7.4532133e-02 -7.1719278e-03 -9.1499678e-03
6.0335000e-02 -2.0717378e-03 -5.4056211e-03
4.6958500e-02 2.6774700e-03 -1.6849600e-03
3.4402633e-02 7.0756956e-03 2.0120156e-03
2.2667400e-02 1.1122939e-02 5.6853056e-03
1.1752800e-02 1.4819200e-02 9.3349100e-03
1.6140100e+00 7.6731800e-01 9.3329400e-02
1.5996178e+00 7.5922933e-01 9.8190111e-02
1.5830311e+00 7.4787167e-01 1.0424464e-01
1.5642500e+00 7.3324500e-01 1.1149300e-01
1.5432744e+00 7.1534933e-01 1.1993518e-01
1.5201044e+00 6.9418467e-01 1.2957118e-01
1.4947400e+00 6.6975100e-01 1.4040100e-01
1.4947400e+00 6.6975100e-01 1.4040100e-01
1.4743944e+00 6.5792833e-01 1.4624278e-01
1.4527044e+00 6.4578033e-01 1.5141111e-01
1.4296700e+00 6.3330700e-01 1.5590600e-01
1.4052911e+00 6.2050833e-01 1.5972744e-01
1.3795678e+00 6.0738433e-01 1.6287544e-01
1.3525000e+00 5.9393500e-01 1.6535000e-01
1.3525000e+00 5.9393500e-01 1.6535000e-01
1.3248522e+00 5.7787011e-01 1.6730978e-01
1.2949989e+00 5.6065211e-01 1.6731178e-01
1.2629400e+00 5.4228100e-01 1.6535600e-01
1.2286756e+00 5.2275678e-01 1.6144244e-01
1.1922056e+00 5.0207944e-01 1.5557111e-01
1.1535300e+00 4.8024900e-01 1.4774200e-01
1.1535300e+00 4.8024900e-01 1.4774200e-01
1.1193800e+00 4.5557233e-01 1.3885378e-01
1.0892267e+00 4.3054067e-01 1.3252844e-01
1.0630700e+00 4.0515400e-01 1.2876600e-01
1.0409100e+00 3.7941233e-01 1.2756644e-01
1.0227467e+00 3.5331567e-01 1.2892978e-01
1.0085800e+00 3.2686400e-01 1.3285600e-01
1.0085800e+00 3.2686400e-01 1.3285600e-01
9.9108511e-01 3.0191289e-01 1.3357500e-01
9.7319644e-01 2.7765789e-01 1.3322333e-01
9.5491400e-01 2.5409900e-01 1.3180100e-01
9.3623778e-01 2.3123622e-01 1.2930800e-01
9.1716778e-01 2.0906956e-01 1.2574433e-01
8.9770400e-01 1.8759900e-01 1.2111000e-01
8.9770400e-01 1.8759900e-01 1.2111000e-01
8.8034978e-01 1.6600700e-01 1.1963059e-01
8.6180744e-01 1.4472633e-01 1.1722626e-01
8.4207700e-01 1.2375700e-01 1.1389700e-01
8.2115844e-01 1.0309900e-01 1.0964282e-01
7.9905178e-01 8.2752333e-02 1.0446372e-01
7.7575700e-01 6.2717000e-02 9.8359700e-02
7.7575700e-01 6.2717000e-02 9.8359700e-02
7.5000122e-01 4.3921400e-02 8.9337189e-02
7.2172189e-01 2.6527600e-02 7.9506822e-02
6.9091900e-01 1.0535600e-02 6.8868600e-02
6.5759256e-01 -4.0546000e-03 5.7422522e-02
6.2174256e-01 -1.7243000e-02 4.5168589e-02
5.8336900e-01 -2.9029600e-02 3.2106800e-02
5.8336900e-01 -2.9029600e-02 3.2106800e-02
5.3925222e-01 -3.8362967e-02 1.9631353e-02
4.9534689e-01 -4.5370967e-02 9.1316787e-03
4.5165300e-01 -5.0053600e-02 6.0777600e-04
4.0817056e-01 -5.2410867e-02 -5.9403547e-03
3.6489956e-01 -5.2442767e-02 -1.0512713e-02
3.2184000e-01 -5.0149300e-02 -1.3109300e-02
3.2184000e-01 -5.0149300e-02 -1.3109300e-02
2.8334911e-01 -4.4735632e-02 -1.5934356e-02
2.4731878e-01 -3.8784466e-02 -1.8024956e-02
2.1374900e-01 -3.2295800e-02 -1.9381100e-02
1.8263978e-01 -2.5269636e-02 -2.0002789e-02
1.5399111e-01 -1.7705972e-02 -1.9890022e-02
1.2780300e-01 -9.6048100e-03 -1.9042800e-02
1.2780300e-01 -9.6048100e-03 -1.9042800e-02
1.0431273e-01 -5.8385783e-03 -1.5052229e-02
8.1947501e-02 -2.6780847e-03 -1.0792869e-02
6.0707300e-02 -1.2332900e-04 -6.2647200e-03
4.0592131e-02 1.8256887e-03 -1.4677822e-03
2.1601994e-02 3.1689683e-03 3.5979444e-03
3.7368900e-03 3.9065100e-03 8.9324600e-03
1.6121300e+00 8.1632600e-01 -3.9529600e-02
1.6318356e+00 8.2066144e-01 -2.8603283e-02
1.6504322e+00 8.2242744e-01 -1.8141987e-02
1.6679200e+00 8.2162400e-01 -8.1457100e-03
1.6842989e+00 8.1825111e-01 1.3855467e-03
1.6995689e+00 8.1230878e-01 1.0451783e-02
1.7137300e+00 8.0379700e-01 1.9053000e-02
1.7137300e+00 8.0379700e-01 1.9053000e-02
1.7254522e+00 7.8695044e-01 2.4136522e-02
1.7361122e+00 7.6837711e-01 2.6627189e-02
1.7457100e+00 7.4807700e-01 2.6525000e-02
1.7542456e+00 7.2605011e-01 2.3829956e-02
1.7617189e+00 7.0229644e-01 1.8542056e-02
1.7681300e+00 6.7681600e-01 1.0661300e-02
1.7681300e+00 6.7681600e-01 1.0661300e-02
1.7739611e+00 6.4919356e-01 3.8161833e-03
1.7785178e+00 6.2530256e-01 -2.2332733e-03
1.7818000e+00 6.0514300e-01 -7.4870700e-03
1.7838078e+00 5.8871489e-01 -1.1945207e-02
1.7845411e+00 5.7601822e-01 -1.5607683e-02
1.7840000e+00 5.6705300e-01 -1.8474500e-02
1.7840000e+00 5.6705300e-01 -1.8474500e-02
1.7840300e+00 5.6892811e-01 -1.8271193e-02
1.7852000e+00 5.7110378e-01 -1.7484827e-02
1.7875100e+00 5.7358000e-01 -1.6115400e-02
1.7909600e+00 5.7635678e-01 -1.4162913e-02
1.7955500e+00 5.7943411e-01 -1.1627367e-02
1.8012800e+00 5.8281200e-01 -8.5087600e-03
1.5707500e+00 8.0003900e-01 2.4334500e-02
1.5810489e+00 7.9943133e-01 4.1496567e-02
1.5901122e+00 7.9688533e-01 5.6393467e-02
1.5979400e+00 7.9240100e-01 6.9025200e-02
1.6045322e+00 7.8597833e-01 7.9391767e-02
1.6098889e+00 7.7761733e-01 8.7493167e-02
1.6140100e+00 7.6731800e-01 9.3329400e-02
1.8567400e+00 2.4784400e-01 -6.5987800e-02
1.8381689e+00 2.1952670e-01 -6.3604933e-02
1.8189289e+00 1.9222470e-01 -6.0273467e-02
1.7990200e+00 1.6593800e-01 -5.5993400e-02
1.7784422e+00 1.4066660e-01 -5.0764733e-02
1.7571956e+00 1.1641050e-01 -4.4587467e-02
1.7352800e+00 9.3169700e-02 -3.7461600e-02
1.7352800e+00 9.3169700e-02 -3.7461600e-02
1.7233000e+00 7.9341267e-02 -3.4401179e-02
1.7095733e+00 6.6983133e-02 -2.9506512e-02
1.6941000e+00 5.6095300e-02 -2.2777600e-02
1.6768800e+00 4.6677767e-02 -1.4214442e-02
1.6579133e+00 3.8730533e-02 -3.8170389e-03
1.6372000e+00 3.2253600e-02 8.4146100e-03
1.6372000e+00 3.2253600e-02 8.4146100e-03
1.6134533e+00 2.4423117e-02 1.9430917e-02
1.5891033e+00 1.7428517e-02 2.9304580e-02
1.5641500e+00 1.1269800e-02 3.8035600e-02
1.5385933e+00 5.9469667e-03 4.5623977e-02
1.5124333e+00 1.4600167e-03 5.2069710e-02
1.4856700e+00 -2.1910500e-03 5.7372800e-02
1.4856700e+00 -2.1910500e-03 5.7372800e-02
1.4506044e+00 -5.7124389e-03 6.0962878e-02
1.4150211e+00 -8.6165222e-03 6.2795578e-02
1.3789200e+00 -1.0903300e-02 6.2870900e-02
1.3423011e+00 -1.2572772e-02 6.1188844e-02
1.3051644e+00 -1.3624939e-02 5.7749411e-02
1.2675100e+00 -1.4059800e-02 5.2552600e-02
1.2675100e+00 -1.4059800e-02 5.2552600e-02
1.2358400e+00 -1.2126628e-02 4.8575344e-02
1.2047967e+00 -9.5046511e-03 4.4263678e-02
1.1743800e+00 -6.1938700e-03 3.9617600e-02
1.1445900e+00 -2.1942844e-03 3.4637111e-02
1.1154267e+00 2.4941056e-03 2.9322211e-02
1.0868900e+00 7.8713000e-03 2.3672900e-02
1.0868900e+00 7.8713000e-03 2.3672900e-02
1.0579590e+00 1.2127889e-02 1.6743928e-02
1.0287817e+00 1.6789456e-02 9.7837378e-03
9.9935800e-01 2.1856000e-02 2.7923300e-03
9.6968800e-01 2.7327522e-02 -4.2302956e-03
9.3977167e-01 3.3204022e-02 -1.1284139e-02
9.0960900e-01 3.9485500e-02 -1.8369200e-02
9.0960900e-01 3.9485500e-02 -1.8369200e-02
8.8184289e-01 4.4542389e-02 -2.4963300e-02
8.5208322e-01 5.0602989e-02 -3.0647500e-02
8.2033000e-01 5.7667300e-02 -3.5421800e-02
7.8658322e-01 6.5735322e-02 -3.9286200e-02
7.5084289e-01 7.4807056e-02 -4.2240700e-02
7.1310900e-01 8.4882500e-02 -4.4285300e-02
7.1310900e-01 8.4882500e-02 -4.4285300e-02
6.6976622e-01 9.7830056e-02 -4.4300889e-02
6.2737222e-01 1.0837189e-01 -4.3673322e-02
5.8592700e-01 1.1650800e-01 -4.2402600e-02
5.4543056e-01 1.2223839e-01 -4.0488722e-02
5.0588289e-01 1.2556306e-01 -3.7931689e-02
4.6728400e-01 1.2648200e-01 -3.4731500e-02
4.6728400e-01 1.2648200e-01 -3.4731500e-02
4.2561444e-01 1.2471558e-01 -3.1107407e-02
3.8628778e-01 1.2140691e-01 -2.7184440e-02
3.4930400e-01 1.1655600e-01 -2.2962600e-02
3.1466311e-01 1.1016284e-01 -1.8441887e-02
2.8236511e-01 1.0222744e-01 -1.3622300e-02
2.5241000e-01 9.2749800e-02 -8.5038400e-03
2.5241000e-01 9.2749800e-02 -8.5038400e-03
2.2227452e-01 8.3371144e-02 -4.2647778e-04
1.9359786e-01 7.3813178e-02 7.0196022e-03
1.6638000e-01 6.4075900e-02 1.3834400e-02
1.4062096e-01 5.4159311e-02 2.0017916e-02
1.1632072e-01 4.4063411e-02 2.5570149e-02
9.3479300e-02 3.3788200e-02 3.0491100e-02
9.3479300e-02 3.3788200e-02 3.0491100e-02
8.1806233e-02 2.8961744e-02 2.5915488e-02
6.9529500e-02 2.3031611e-02 2.1201355e-02
5.6649100e-02 1.5997800e-02 1.6348700e-02
4.3165033e-02 7.8603111e-03 1.1357524e-02
2.9077300e-02 -1.3808556e-03 6.2278261e-03
1.4385900e-02 -1.1725700e-02 9.5960700e-04
5.8234100e+00 3.8942900e-01 1.1616900e-01
5.8122167e+00 3.5737533e-01 1.2577922e-01
5.8002367e+00 3.2652867e-01 1.3516222e-01
5.7874700e+00 2.9688900e-01 1.4431800e-01
5.7739167e+00 2.6845633e-01 1.5324656e-01
5.7595767e+00 2.4123067e-01 1.6194789e-01
5.7444500e+00 2.1521200e-01 1.7042200e-01
5.7444500e+00 2.1521200e-01 1.7042200e-01
5.7309144e+00 1.9740744e-01 1.7657222e-01
5.7168678e+00 1.8429078e-01 1.8218922e-01
5.7023100e+00 1.7586200e-01 1.8727300e-01
5.6872411e+00 1.7212111e-01 1.9182356e-01
5.6716611e+00 1.7306811e-01 1.9584089e-01
5.6555700e+00 1.7870300e-01 1.9932500e-01
5.6555700e+00 1.7870300e-01 1.9932500e-01
5.6398589e+00 1.8357533e-01 2.0182378e-01
5.6226422e+00 1.8911767e-01 2.0447578e-01
5.6039200e+00 1.9533000e-01 2.0728100e-01
5.5836922e+00 2.0221233e-01 2.1023944e-01
5.5619589e+00 2.0976467e-01 2.1335111e-01
5.5387200e+00 2.1798700e-01 2.1661600e-01
5.5387200e+00 2.1798700e-01 2.1661600e-01
5.5074044e+00 2.2779078e-01 2.2284700e-01
5.4774911e+00 2.3275644e-01 2.2888267e-01
5.4489800e+00 2.3288400e-01 2.3472300e-01
5.4218711e+00 2.2817344e-01 2.4036800e-01
5.3961644e+00 2.1862478e-01 2.4581767e-01
5.3718600e+00 2.0423800e-01 2.5107200e-01
5.3718600e+00 2.0423800e-01 2.5107200e-01
5.3525489e+00 1.8742751e-01 2.5183756e-01
5.3342589e+00 1.7014484e-01 2.5053389e-01
5.3169900e+00 1.5239000e-01 2.4716100e-01
5.3007422e+00 1.3416298e-01 2.4171889e-01
5.2855156e+00 1.1546378e-01 2.3420756e-01
5.2713100e+00 9.6292400e-02 2.2462700e-01
5.2713100e+00 9.6292400e-02 2.2462700e-01
5.2484578e+00 1.1481256e-01 2.2656100e-01
5.2235411e+00 1.3235709e-01 2.2734100e-01
5.1965600e+00 1.4892600e-01 2.2696700e-01
5.1675144e+00 1.6451929e-01 2.2543900e-01
5.1364044e+00 1.7913696e-01 2.2275700e-01
5.1032300e+00 1.9277900e-01 2.1892100e-01
5.1032300e+00 1.9277900e-01 2.1892100e-01
5.0708722e+00 2.0177067e-01 2.0970833e-01
5.0405756e+00 2.0676500e-01 1.9931800e-01
5.0123400e+00 2.0776200e-01 1.8775000e-01
4.9861656e+00 2.0476167e-01 1.7500433e-01
4.9620522e+00 1.9776400e-01 1.6108100e-01
4.9400000e+00 1.8676900e-01 1.4598000e-01
4.9400000e+00 1.8676900e-01 1.4598000e-01
4.9206733e+00 1.7125988e-01 1.3631216e-01
4.8996633e+00 1.5534854e-01 1.2589249e-01
4.8769700e+00 1.3903500e-01 1.1472100e-01
4.8525933e+00 1.2231924e-01 1.0279769e-01
4.8265333e+00 1.0520128e-01 9.0122556e-02
4.7987900e+00 8.7681100e-02 7.6695600e-02
4.7987900e+00 8.7681100e-02 7.6695600e-02
4.7647167e+00 7.1380922e-02 5.9690829e-02
4.7280433e+00 5.9604956e-02 4.4335295e-02
4.6887700e+00 5.2353200e-02 3.0629000e-02
4.6468967e+00 4.9625656e-02 1.8571943e-02
4.6024233e+00 5.1422322e-02 8.1641239e-03
4.5553500e+00 5.7743200e-02 -5.9445700e-04
4.5553500e+00 5.7743200e-02 -5.9445700e-04
4.5091300e+00 7.2766778e-02 -3.8018772e-03
4.4671200e+00 8.7532378e-02 -6.2376782e-03
4.4293200e+00 1.0204000e-01 -7.9018600e-03
4.3957300e+00 1.1628964e-01 -8.7944226e-03
4.3663500e+00 1.3028131e-01 -8.9153659e-03
4.3411800e+00 1.4401500e-01 -8.2646900e-03
4.4257200e+00 1.8881600e-01 -3.6579400e-02
4.4176133e+00 1.7664500e-01 -3.4611757e-02
4.4071133e+00 1.6635567e-01 -3.1543523e-02
4.3942200e+00 1.5794800e-01 -2.7374700e-02
4.3789333e+00 1.5142200e-01 -2.2105287e-02
4.3612533e+00 1.4677767e-01 -1.5735283e-02
4.3411800e+00 1.4401500e-01 -8.2646900e-03
5.5451000e+00 4.2279400e-01 1.2111200e-01
5.5274000e+00 4.0992333e-01 1.0953257e-01
5.5095000e+00 3.9671767e-01 9.7203833e-02
5.4914000e+00 3.8317700e-01 8.4125800e-02
5.4731000e+00 3.6930133e-01 7.0298467e-02
5.4546000e+00 3.5509067e-01 5.5721833e-02
5.4359000e+00 3.4054500e-01 4.0395900e-02
5.4359000e+00 3.4054500e-01 4.0395900e-02
5.4175811e+00 3.2229244e-01 2.4746173e-02
5.3997144e+00 3.0507878e-01 1.3074003e-02
5.3823000e+00 2.8890400e-01 5.3793900e-03
5.3653378e+00 2.7376811e-01 1.6623333e-03
5.3488278e+00 2.5967111e-01 1.9228333e-03
5.3327700e+00 2.4661300e-01 6.1608900e-03
5.3327700e+00 2.4661300e-01 6.1608900e-03
5.3084456e+00 2.4182844e-01 2.5045939e-02
5.2825156e+00 2.3880044e-01 4.4046776e-02
5.2549800e+00 2.3752900e-01 6.3163400e-02
5.2258389e+00 2.3801411e-01 8.2395812e-02
5.1950922e+00 2.4025578e-01 1.0174401e-01
5.1627400e+00 2.4425400e-01 1.2120800e-01
5.1627400e+00 2.4425400e-01 1.2120800e-01
5.1318533e+00 2.5116733e-01 1.4190800e-01
5.0995367e+00 2.5637033e-01 1.6260033e-01
5.0657900e+00 2.5986300e-01 1.8328500e-01
5.0306133e+00 2.6164533e-01 2.0396200e-01
4.9940067e+00 2.6171733e-01 2.2463133e-01
4.9559700e+00 2.6007900e-01 2.4529300e-01
4.9559700e+00 2.6007900e-01 2.4529300e-01
4.9145911e+00 2.4099522e-01 2.3927541e-01
4.8702178e+00 2.2532856e-01 2.2512874e-01
4.8228500e+00 2.1307900e-01 2.0285300e-01
4.7724878e+00 2.0424656e-01 1.7244818e-01
4.7191311e+00 1.9883122e-01 1.3391428e-01
4.6627800e+00 1.9683300e-01 8.7251300e-02
4.6627800e+00 1.9683300e-01 8.7251300e-02
4.6128089e+00 1.9859322e-01 5.3039409e-02
4.5670222e+00 1.9911489e-01 2.4256894e-02
4.5254200e+00 1.9839800e-01 9.0375600e-04
4.4880022e+00 1.9644256e-01 -1.7020006e-02
4.4547689e+00 1.9324856e-01 -2.9514391e-02
4.4257200e+00 1.8881600e-01 -3.6579400e-02
3.2462900e+00 3.3722000e-01 -4.5373300e-02
3.2775633e+00 3.1136478e-01 -3.9648744e-02
3.3144733e+00 2.8670011e-01 -3.6502511e-02
3.3570200e+00 2.6322600e-01 -3.5934600e-02
3.4052033e+00 2.4094244e-01 -3.7945011e-02
3.4590233e+00 2.1984944e-01 -4.2533744e-02
3.5184800e+00 1.9994700e-01 -4.9700800e-02
3.5184800e+00 1.9994700e-01 -4.9700800e-02
3.5793700e+00 1.9788233e-01 -5.0120556e-02
3.6393633e+00 2.0112733e-01 -4.8826089e-02
3.6984600e+00 2.0968200e-01 -4.5817400e-02
3.7566600e+00 2.2354633e-01 -4.1094489e-02
3.8139633e+00 2.4272033e-01 -3.4657356e-02
3.8703700e+00 2.6720400e-01 -2.6506000e-02
3.8703700e+00 2.6720400e-01 -2.6506000e-02
3.9221867e+00 2.9174467e-01 -2.2472933e-02
3.9744467e+00 3.1091967e-01 -1.9104733e-02
4.0271500e+00 3.2472900e-01 -1.6401400e-02
4.0802967e+00 3.3317267e-01 -1.4362933e-02
4.1338867e+00 3.3625067e-01 -1.2989333e-02
4.1879200e+00 3.3396300e-01 -1.2280600e-02
4.1879200e+00 3.3396300e-01 -1.2280600e-02
4.2395422e+00 3.1352711e-01 -1.4818178e-02
4.2863689e+00 2.9158911e-01 -1.7960644e-02
4.3284000e+00 2.6814900e-01 -2.1708000e-02
4.3656356e+00 2.4320678e-01 -2.6060244e-02
4.3980756e+00 2.1676244e-01 -3.1017378e-02
4.4257200e+00 1.8881600e-01 -3.6579400e-02