# vtk DataFile Version 2.0
test
ASCII
DATASET POLYDATA
POINTS 4361 float
7.1036622e+00 7.6622885e+00 1.1854145e+01
7.2246789e+00 7.7052718e+00 1.1734601e+01
7.3463699e+00 7.7460973e+00 1.1615015e+01
7.4687350e+00 7.7847651e+00 1.1495387e+01
7.5917744e+00 7.8212750e+00 1.1375717e+01
7.7154880e+00 7.8556271e+00 1.1256005e+01
7.8398758e+00 7.8878214e+00 1.1136250e+01
7.8398758e+00 7.8878214e+00 1.1136250e+01
7.9666679e+00 7.9332039e+00 1.1020229e+01
8.0985681e+00 7.9764380e+00 1.0910261e+01
8.2355765e+00 8.0175235e+00 1.0806346e+01
8.3776930e+00 8.0564606e+00 1.0708484e+01
8.5249177e+00 8.0932491e+00 1.0616675e+01
8.6772506e+00 8.1278891e+00 1.0530918e+01
8.6772506e+00 8.1278891e+00 1.0530918e+01
8.8454458e+00 8.1523449e+00 1.0471346e+01
9.0153996e+00 8.1758342e+00 1.0430438e+01
9.1871120e+00 8.1983570e+00 1.0408194e+01
9.3605831e+00 8.2199133e+00 1.0404613e+01
9.5358127e+00 8.2405031e+00 1.0419697e+01
9.7128011e+00 8.2601264e+00 1.0453444e+01
9.7128011e+00 8.2601264e+00 1.0453444e+01
9.8873267e+00 8.2759922e+00 1.0482105e+01
1.0061531e+01 8.2904981e+00 1.0513405e+01
1.0235414e+01 8.3036442e+00 1.0547345e+01
1.0408976e+01 8.3154304e+00 1.0583924e+01
1.0582216e+01 8.3258567e+00 1.0623142e+01
1.0755136e+01 8.3349231e+00 1.0665000e+01
1.0755136e+01 8.3349231e+00 1.0665000e+01
1.0927469e+01 8.3420835e+00 1.0710444e+01
1.1100850e+01 8.3478995e+00 1.0750627e+01
1.1275278e+01 8.3523711e+00 1.0785551e+01
1.1450755e+01 8.3554981e+00 1.0815213e+01
1.1627279e+01 8.3572808e+00 1.0839616e+01
1.1804850e+01 8.3577189e+00 1.0858758e+01
1.1804850e+01 8.3577189e+00 1.0858758e+01
1.1984824e+01 8.3555094e+00 1.0869892e+01
1.2162557e+01 8.3518360e+00 1.0865995e+01
1.2338049e+01 8.3466987e+00 1.0847066e+01
1.2511302e+01 8.3400975e+00 1.0813105e+01
1.2682313e+01 8.3320323e+00 1.0764113e+01
1.2851085e+01 8.3225032e+00 1.0700089e+01
1.2851085e+01 8.3225032e+00 1.0700089e+01
1.3011507e+01 8.3122479e+00 1.0617256e+01
1.3163634e+01 8.3053251e+00 1.0523840e+01
1.3307467e+01 8.3017347e+00 1.0419842e+01
1.3443005e+01 8.3014769e+00 1.0305262e+01
1.3570249e+01 8.3045515e+00 1.0180100e+01
1.3689198e+01 8.3109586e+00 1.0044355e+01
1.3689198e+01 8.3109586e+00 1.0044355e+01
1.3794086e+01 8.3490047e+00 9.9034908e+00
1.3898804e+01 8.3820301e+00 9.7612275e+00
1.4003354e+01 8.4100348e+00 9.6175651e+00
1.4107734e+01 8.4330187e+00 9.4725038e+00
1.4211944e+01 8.4509819e+00 9.3260435e+00
1.4315986e+01 8.4639244e+00 9.1781841e+00
1.4315986e+01 8.4639244e+00 9.1781841e+00
1.4200319e+01 8.3842318e+00 9.0501033e+00
1.4084103e+01 8.3000103e+00 8.9266238e+00
1.3967338e+01 8.2112598e+00 8.8077458e+00
1.3850025e+01 8.1179804e+00 8.6934693e+00
1.3732163e+01 8.0201720e+00 8.5837941e+00
1.3613753e+01 7.9178346e+00 8.4787203e+00
1.3613753e+01 7.9178346e+00 8.4787203e+00
1.3494361e+01 7.8399882e+00 8.3557588e+00
1.3378113e+01 7.7598509e+00 8.2317529e+00
1.3265009e+01 7.6774227e+00 8.1067028e+00
1.3155048e+01 7.5927037e+00 7.9806084e+00
1.3048232e+01 7.5056937e+00 7.8534697e+00
1.2944560e+01 7.4163930e+00 7.7252868e+00
1.2944560e+01 7.4163930e+00 7.7252868e+00
1.2844574e+01 7.3336408e+00 7.5891887e+00
1.2751277e+01 7.2483896e+00 7.4509619e+00
1.2664669e+01 7.1606395e+00 7.3106063e+00
1.2584749e+01 7.0703903e+00 7.1681218e+00
1.2511519e+01 6.9776422e+00 7.0235086e+00
1.2444977e+01 6.8823951e+00 6.8767666e+00
1.2444977e+01 6.8823951e+00 6.8767666e+00
1.2394907e+01 6.7844974e+00 6.7272800e+00
1.2351338e+01 6.6850362e+00 6.5771715e+00
1.2314269e+01 6.5840115e+00 6.4264411e+00
1.2283700e+01 6.4814232e+00 6.2750889e+00
1.2259631e+01 6.3772714e+00 6.1231147e+00
1.2242063e+01 6.2715560e+00 5.9705187e+00
1.2242063e+01 6.2715560e+00 5.9705187e+00
1.2233542e+01 6.1639260e+00 5.8188229e+00
1.2231781e+01 6.0541015e+00 5.6694177e+00
1.2236781e+01 5.9420825e+00 5.5223032e+00
1.2248542e+01 5.8278689e+00 5.3774794e+00
1.2267064e+01 5.7114608e+00 5.2349461e+00
1.2292346e+01 5.5928582e+00 5.0947036e+00
1.2292346e+01 5.5928582e+00 5.0947036e+00
1.2318697e+01 5.4724768e+00 4.9568350e+00
1.2346704e+01 5.3515987e+00 4.8197704e+00
1.2376367e+01 5.2302239e+00 4.6835096e+00
1.2407686e+01 5.1083524e+00 4.5480528e+00
1.2440661e+01 4.9859842e+00 4.4134000e+00
1.2475293e+01 4.8631194e+00 4.2795510e+00
1.2475293e+01 4.8631194e+00 4.2795510e+00
1.2508901e+01 4.7398673e+00 4.1463114e+00
1.2538821e+01 4.6138601e+00 4.0145324e+00
1.2565054e+01 4.4850977e+00 3.8842140e+00
1.2587600e+01 4.3535802e+00 3.7553564e+00
1.2606459e+01 4.2193075e+00 3.6279594e+00
1.2621630e+01 4.0822797e+00 3.5020231e+00
1.2621630e+01 4.0822797e+00 3.5020231e+00
1.2633271e+01 3.9426069e+00 3.3784078e+00
1.2638906e+01 3.8027481e+00 3.2551605e+00
1.2638535e+01 3.6627034e+00 3.1322812e+00
1.2632156e+01 3.5224728e+00 3.0097698e+00
1.2619772e+01 3.3820561e+00 2.8876263e+00
1.2601381e+01 3.2414535e+00 2.7658509e+00
1.2601381e+01 3.2414535e+00 2.7658509e+00
1.2574542e+01 3.0994631e+00 2.6460648e+00
1.2540451e+01 2.9576102e+00 2.5285715e+00
1.2499110e+01 2.8158948e+00 2.4133712e+00
1.2450516e+01 2.6743168e+00 2.3004638e+00
1.2394672e+01 2.5328763e+00 2.1898494e+00
1.2331576e+01 2.3915733e+00 2.0815278e+00
1.2331576e+01 2.3915733e+00 2.0815278e+00
1.2263008e+01 2.2542607e+00 1.9720140e+00
1.2189557e+01 2.1179285e+00 1.8646171e+00
1.2111222e+01 1.9825767e+00 1.7593369e+00
1.2028003e+01 1.8482052e+00 1.6561736e+00
1.1939901e+01 1.7148142e+00 1.5551270e+00
1.1846916e+01 1.5824035e+00 1.4561973e+00
1.1846916e+01 1.5824035e+00 1.4561973e+00
1.1743880e+01 1.4523973e+00 1.3626673e+00
1.1638562e+01 1.3231767e+00 1.2710325e+00
1.1530963e+01 1.1947417e+00 1.1812931e+00
1.1421083e+01 1.0670924e+00 1.0934490e+00
1.1308921e+01 9.4022875e-01 1.0075001e+00
1.1194477e+01 8.1415073e-01 9.2344657e-01
1.1194477e+01 8.1415073e-01 9.2344657e-01
1.1081522e+01 6.8401426e-01 8.3867517e-01
1.0968283e+01 5.5448249e-01 7.5458541e-01
1.0854760e+01 4.2555540e-01 6.7117729e-01
1.0740954e+01 2.9723301e-01 5.8845080e-01
1.0626864e+01 1.6951531e-01 5.0640595e-01
1.0512490e+01 4.2402300e-02 4.2504273e-01
4.6871000e+00 6.7033521e+00 1.1738594e+01
4.6356653e+00 6.6488098e+00 1.1562603e+01
4.5823952e+00 6.5872722e+00 1.1390113e+01
4.5272898e+00 6.5187395e+00 1.1221124e+01
4.4703490e+00 6.4432116e+00 1.1055636e+01
4.4115728e+00 6.3606886e+00 1.0893650e+01
4.3509612e+00 6.2711703e+00 1.0735165e+01
4.3509612e+00 6.2711703e+00 1.0735165e+01
4.3049818e+00 6.2038042e+00 1.0562135e+01
4.2643196e+00 6.1342852e+00 1.0389093e+01
4.2289746e+00 6.0626131e+00 1.0216041e+01
4.1989467e+00 5.9887880e+00 1.0042976e+01
4.1742361e+00 5.9128099e+00 9.8699004e+00
4.1548426e+00 5.8346789e+00 9.6968132e+00
4.1548426e+00 5.8346789e+00 9.6968132e+00
4.1421912e+00 5.7532791e+00 9.5239612e+00
4.1362295e+00 5.6684928e+00 9.3534495e+00
4.1369576e+00 5.5803200e+00 9.1852780e+00
4.1443754e+00 5.4887606e+00 9.0194466e+00
4.1584829e+00 5.3938148e+00 8.8559555e+00
4.1792802e+00 5.2954825e+00 8.6948045e+00
4.1792802e+00 5.2954825e+00 8.6948045e+00
4.2217818e+00 5.1877103e+00 8.5415592e+00
4.2776022e+00 5.0767383e+00 8.3991498e+00
4.3467416e+00 4.9625663e+00 8.2675762e+00
4.4291999e+00 4.8451944e+00 8.1468384e+00
4.5249771e+00 4.7246225e+00 8.0369365e+00
4.6340733e+00 4.6008507e+00 7.9378704e+00
4.6340733e+00 4.6008507e+00 7.9378704e+00
4.7400343e+00 4.4787594e+00 7.8395676e+00
4.8455970e+00 4.3562626e+00 7.7415299e+00
4.9507612e+00 4.2333604e+00 7.6437575e+00
5.0555270e+00 4.1100526e+00 7.5462501e+00
5.1598945e+00 3.9863393e+00 7.4490080e+00
5.2638635e+00 3.8622206e+00 7.3520310e+00
5.2638635e+00 3.8622206e+00 7.3520310e+00
5.3678714e+00 3.7345320e+00 7.2579646e+00
5.4662713e+00 3.6043454e+00 7.1620081e+00
5.5590632e+00 3.4716607e+00 7.0641616e+00
5.6462471e+00 3.3364778e+00 6.9644250e+00
5.7278230e+00 3.1987968e+00 6.8627983e+00
5.8037909e+00 3.0586177e+00 6.7592816e+00
5.8037909e+00 3.0586177e+00 6.7592816e+00
5.8701188e+00 2.9169872e+00 6.6501807e+00
5.9252944e+00 2.7760301e+00 6.5360321e+00
5.9693178e+00 2.6357464e+00 6.4168358e+00
6.0021888e+00 2.4961361e+00 6.2925918e+00
6.0239077e+00 2.3571993e+00 6.1633002e+00
6.0344742e+00 2.2189359e+00 6.0289610e+00
6.0344742e+00 2.2189359e+00 6.0289610e+00
6.0295873e+00 2.0844560e+00 5.8905132e+00
6.0154035e+00 1.9516812e+00 5.7522474e+00
5.9919228e+00 1.8206114e+00 5.6141636e+00
5.9591453e+00 1.6912468e+00 5.4762616e+00
5.9170709e+00 1.5635874e+00 5.3385417e+00
5.8656996e+00 1.4376330e+00 5.2010037e+00
5.8656996e+00 1.4376330e+00 5.2010037e+00
5.8096384e+00 1.3146193e+00 5.0620128e+00
5.7502259e+00 1.1934678e+00 4.9229566e+00
5.6874620e+00 1.0741785e+00 4.7838349e+00
5.6213468e+00 9.5675136e-01 4.6446478e+00
5.5518803e+00 8.4118638e-01 4.5053953e+00
5.4790624e+00 7.2748356e-01 4.3660773e+00
5.4790624e+00 7.2748356e-01 4.3660773e+00
5.4044635e+00 6.0873702e-01 4.2315151e+00
5.3289909e+00 4.8982614e-01 4.0976167e+00
5.2526444e+00 3.7075090e-01 3.9643820e+00
5.1754241e+00 2.5151132e-01 3.8318112e+00
5.0973299e+00 1.3210738e-01 3.6999041e+00
5.0183620e+00 1.2539100e-02 3.5686608e+00
3.4700900e+00 6.5138144e+00 1.3786107e+01
3.5564219e+00 6.6262397e+00 1.3649752e+01
3.6538723e+00 6.7355926e+00 1.3522561e+01
3.7624411e+00 6.8418732e+00 1.3404535e+01
3.8821283e+00 6.9450815e+00 1.3295674e+01
4.0129341e+00 7.0452174e+00 1.3195977e+01
4.1548582e+00 7.1422809e+00 1.3105445e+01
4.1548582e+00 7.1422809e+00 1.3105445e+01
4.3254086e+00 7.2179404e+00 1.3051816e+01
4.5008958e+00 7.2825393e+00 1.3009515e+01
4.6813200e+00 7.3360774e+00 1.2978543e+01
4.8666811e+00 7.3785548e+00 1.2958900e+01
5.0569791e+00 7.4099714e+00 1.2950584e+01
5.2522140e+00 7.4303274e+00 1.2953598e+01
5.2522140e+00 7.4303274e+00 1.2953598e+01
5.4479035e+00 7.4418607e+00 1.2957714e+01
5.6395971e+00 7.4553505e+00 1.2945108e+01
5.8272948e+00 7.4707969e+00 1.2915779e+01
6.0109966e+00 7.4882000e+00 1.2869728e+01
6.1907025e+00 7.5075596e+00 1.2806954e+01
6.3664125e+00 7.5288758e+00 1.2727458e+01
6.3664125e+00 7.5288758e+00 1.2727458e+01
6.5172482e+00 7.5603400e+00 1.2607894e+01
6.6568996e+00 7.5881127e+00 1.2477935e+01
6.7853667e+00 7.6121939e+00 1.2337581e+01
6.9026495e+00 7.6325836e+00 1.2186831e+01
[...]
POINT_DATA 4361
VECTORS U float
3.8067600e+00 1.1994400e+00 -1.3112100e-02
3.8319411e+00 1.1709272e+00 1.0380333e-03
3.8551611e+00 1.1399339e+00 1.2826733e-02
3.8764200e+00 1.1064600e+00 2.2254000e-02
3.8957178e+00 1.0705056e+00 2.9319833e-02
3.9130544e+00 1.0320706e+00 3.4024233e-02
3.9284300e+00 9.9115500e-01 3.6367200e-02
3.9284300e+00 9.9115500e-01 3.6367200e-02
3.9400322e+00 9.6222978e-01 3.8221578e-02
3.9495522e+00 9.3162378e-01 3.6003378e-02
3.9569900e+00 8.9933700e-01 2.9712600e-02
3.9623456e+00 8.6536944e-01 1.9349244e-02
3.9656189e+00 8.2972111e-01 4.9133111e-03
3.9668100e+00 7.9239200e-01 -1.3595200e-02
3.9668100e+00 7.9239200e-01 -1.3595200e-02
3.9753644e+00 7.4757922e-01 -2.4465404e-02
3.9829311e+00 7.0566289e-01 -2.9444571e-02
3.9895100e+00 6.6664300e-01 -2.8532700e-02
3.9951011e+00 6.3051956e-01 -2.1729791e-02
3.9997044e+00 5.9729256e-01 -9.0358444e-03
4.0033200e+00 5.6696200e-01 9.5491400e-03
4.0033200e+00 5.6696200e-01 9.5491400e-03
4.0058967e+00 5.3748056e-01 1.4781711e-02
4.0080967e+00 5.1003122e-01 1.8978098e-02
4.0099200e+00 4.8461400e-01 2.2138300e-02
4.0113667e+00 4.6122889e-01 2.4262318e-02
4.0124367e+00 4.3987589e-01 2.5350151e-02
4.0131300e+00 4.2055500e-01 2.5401800e-02
4.0131300e+00 4.2055500e-01 2.5401800e-02
4.0127867e+00 4.0195111e-01 2.9200033e-02
4.0124900e+00 3.8475911e-01 3.1790000e-02
4.0122400e+00 3.6897900e-01 3.3171700e-02
4.0120367e+00 3.5461078e-01 3.3345133e-02
4.0118800e+00 3.4165444e-01 3.2310300e-02
4.0117700e+00 3.3011000e-01 3.0067200e-02
4.0117700e+00 3.3011000e-01 3.0067200e-02
4.0113556e+00 3.1877478e-01 2.8538538e-02
4.0102656e+00 3.0898944e-01 2.5172271e-02
4.0085000e+00 3.0075400e-01 1.9968400e-02
4.0060589e+00 2.9406844e-01 1.2926924e-02
4.0029422e+00 2.8893278e-01 4.0478444e-03
3.9991500e+00 2.8534700e-01 -6.6688400e-03
3.9991500e+00 2.8534700e-01 -6.6688400e-03
3.9945011e+00 2.8419022e-01 -1.7290844e-02
3.9883878e+00 2.8799489e-01 -2.8241198e-02
3.9808100e+00 2.9676100e-01 -3.9519900e-02
3.9717678e+00 3.1048856e-01 -5.1126951e-02
3.9612611e+00 3.2917756e-01 -6.3062351e-02
3.9492900e+00 3.5282800e-01 -7.5326100e-02
3.9492900e+00 3.5282800e-01 -7.5326100e-02
3.9295667e+00 4.0855078e-01 -8.8534278e-02
3.9123133e+00 4.5955244e-01 -1.0082358e-01
3.8975300e+00 5.0583300e-01 -1.1219400e-01
3.8852167e+00 5.4739244e-01 -1.2264554e-01
3.8753733e+00 5.8423078e-01 -1.3217821e-01
3.8680000e+00 6.1634800e-01 -1.4079200e-01
3.8680000e+00 6.1634800e-01 -1.4079200e-01
3.8471944e+00 6.0030333e-01 -1.2463296e-01
3.8244978e+00 5.8024433e-01 -1.0326332e-01
3.7999100e+00 5.5617100e-01 -7.6683100e-02
3.7734311e+00 5.2808333e-01 -4.4892289e-02
3.7450611e+00 4.9598133e-01 -7.8908889e-03
3.7148000e+00 4.5986500e-01 3.4321100e-02
3.7148000e+00 4.5986500e-01 3.4321100e-02
3.6810411e+00 4.4929056e-01 5.9981500e-02
3.6456578e+00 4.3798389e-01 8.6156467e-02
3.6086500e+00 4.2594500e-01 1.1284600e-01
3.5700178e+00 4.1317389e-01 1.4005010e-01
3.5297611e+00 3.9967056e-01 1.6776877e-01
3.4878800e+00 3.8543500e-01 1.9600200e-01
3.4878800e+00 3.8543500e-01 1.9600200e-01
3.4426111e+00 3.8003356e-01 2.1860144e-01
3.3947311e+00 3.7417322e-01 2.3982078e-01
3.3442400e+00 3.6785400e-01 2.5966000e-01
3.2911378e+00 3.6107589e-01 2.7811911e-01
3.2354244e+00 3.5383889e-01 2.9519811e-01
3.1771000e+00 3.4614300e-01 3.1089700e-01
3.1771000e+00 3.4614300e-01 3.1089700e-01
3.1228722e+00 3.3770700e-01 3.2311178e-01
3.0652656e+00 3.2868500e-01 3.3231778e-01
3.0042800e+00 3.1907700e-01 3.3851500e-01
2.9399156e+00 3.0888300e-01 3.4170344e-01
2.8721722e+00 2.9810300e-01 3.4188311e-01
2.8010500e+00 2.8673700e-01 3.3905400e-01
2.8010500e+00 2.8673700e-01 3.3905400e-01
2.7308311e+00 2.7355900e-01 3.3304778e-01
2.6620011e+00 2.5857967e-01 3.2615478e-01
2.5945600e+00 2.4179900e-01 3.1837500e-01
2.5285078e+00 2.2321700e-01 3.0970844e-01
2.4638444e+00 2.0283367e-01 3.0015511e-01
2.4005700e+00 1.8064900e-01 2.8971500e-01
2.4005700e+00 1.8064900e-01 2.8971500e-01
2.3354978e+00 1.5710802e-01 2.7883856e-01
2.2705678e+00 1.3407869e-01 2.6677022e-01
2.2057800e+00 1.1156100e-01 2.5351000e-01
2.1411344e+00 8.9554956e-02 2.3905789e-01
2.0766311e+00 6.8060556e-02 2.2341389e-01
2.0122700e+00 4.7077800e-02 2.0657800e-01
2.0122700e+00 4.7077800e-02 2.0657800e-01
1.9468889e+00 2.7154344e-02 1.8907911e-01
1.8793422e+00 6.5796444e-03 1.7229944e-01
1.8096300e+00 -1.4646300e-02 1.5623900e-01
1.7377522e+00 -3.6523489e-02 1.4089778e-01
1.6637089e+00 -5.9051922e-02 1.2627578e-01
1.5875000e+00 -8.2231600e-02 1.1237300e-01
1.5875000e+00 -8.2231600e-02 1.1237300e-01
1.5106356e+00 -1.0522311e-01 1.0073818e-01
1.4331456e+00 -1.2521424e-01 8.9500478e-02
1.3550300e+00 -1.4220500e-01 7.8659900e-02
1.2762889e+00 -1.5619538e-01 6.8216444e-02
1.1969222e+00 -1.6718538e-01 5.8170111e-02
1.1169300e+00 -1.7517500e-01 4.8520900e-02
1.1169300e+00 -1.7517500e-01 4.8520900e-02
1.0366434e+00 -1.8051856e-01 4.1300233e-02
9.5899344e-01 -1.8326056e-01 3.5732400e-02
8.8398000e-01 -1.8340100e-01 3.1817400e-02
8.1160311e-01 -1.8093989e-01 2.9555233e-02
7.4186278e-01 -1.7587722e-01 2.8945900e-02
6.7475900e-01 -1.6821300e-01 2.9989400e-02
6.7475900e-01 -1.6821300e-01 2.9989400e-02
6.1456522e-01 -1.5561620e-01 2.8071300e-02
5.5879189e-01 -1.4254753e-01 2.6174267e-02
5.0743900e-01 -1.2900700e-01 2.4298300e-02
4.6050656e-01 -1.1499460e-01 2.2443400e-02
4.1799456e-01 -1.0051033e-01 2.0609567e-02
3.7990300e-01 -8.5554200e-02 1.8796800e-02
3.7990300e-01 -8.5554200e-02 1.8796800e-02
3.3883522e-01 -7.0184573e-02 1.9843367e-02
3.0025489e-01 -5.5389940e-02 2.1052233e-02
2.6416200e-01 -4.1170300e-02 2.2423400e-02
2.3055656e-01 -2.7525653e-02 2.3956867e-02
1.9943856e-01 -1.4456000e-02 2.5652633e-02
1.7080800e-01 -1.9613400e-03 2.7510700e-02
1.7080800e-01 -1.9613400e-03 2.7510700e-02
1.4618126e-01 5.2766111e-03 2.7444233e-02
1.2261326e-01 1.2576958e-02 2.7474567e-02
1.0010400e-01 1.9939700e-02 2.7601700e-02
7.8653489e-02 2.7364838e-02 2.7825633e-02
5.8261722e-02 3.4852371e-02 2.8146367e-02
3.8928700e-02 4.2402300e-02 2.8563900e-02
3.4689800e+00 1.4918400e+00 9.4039100e-02
3.4401322e+00 1.4735289e+00 1.0556850e-01
3.4071489e+00 1.4488089e+00 1.2067980e-01
3.3700300e+00 1.4176800e+00 1.3937300e-01
3.3287756e+00 1.3801422e+00 1.6164810e-01
3.2833856e+00 1.3361956e+00 1.8750510e-01
3.2338600e+00 1.2858400e+00 2.1694400e-01
3.2338600e+00 1.2858400e+00 2.1694400e-01
3.1944744e+00 1.2588411e+00 2.3244156e-01
3.1524444e+00 1.2315378e+00 2.4687256e-01
3.1077700e+00 1.2039300e+00 2.6023700e-01
3.0604511e+00 1.1760178e+00 2.7253489e-01
3.0104878e+00 1.1478011e+00 2.8376622e-01
2.9578800e+00 1.1192800e+00 2.9393100e-01
2.9578800e+00 1.1192800e+00 2.9393100e-01
2.8992689e+00 1.0902903e+00 3.0188322e-01
2.8357122e+00 1.0601070e+00 3.0612822e-01
2.7672100e+00 1.0287300e+00 3.0666600e-01
2.6937622e+00 9.9615933e-01 3.0349656e-01
2.6153689e+00 9.6239500e-01 2.9661989e-01
2.5320300e+00 9.2743700e-01 2.8603600e-01
2.5320300e+00 9.2743700e-01 2.8603600e-01
2.4595022e+00 8.8459644e-01 2.7338078e-01
2.3941822e+00 8.3985444e-01 2.6441578e-01
2.3360700e+00 7.9321100e-01 2.5914100e-01
2.2851656e+00 7.4466611e-01 2.5755644e-01
2.2414689e+00 6.9421978e-01 2.5966211e-01
2.2049800e+00 6.4187200e-01 2.6545800e-01
2.2049800e+00 6.4187200e-01 2.6545800e-01
2.1630289e+00 5.9219578e-01 2.6652389e-01
2.1195889e+00 5.4376178e-01 2.6470222e-01
2.0746600e+00 4.9657000e-01 2.5999300e-01
2.0282422e+00 4.5062044e-01 2.5239622e-01
1.9803356e+00 4.0591311e-01 2.4191189e-01
1.9309400e+00 3.6244800e-01 2.2854000e-01
1.9309400e+00 3.6244800e-01 2.2854000e-01
1.8820889e+00 3.1745994e-01 2.1699789e-01
1.8298422e+00 2.7286861e-01 2.0431989e-01
1.7742000e+00 2.2867400e-01 1.9050600e-01
1.7151622e+00 1.8487611e-01 1.7555622e-01
1.6527289e+00 1.4147494e-01 1.5947056e-01
1.5869000e+00 9.8470500e-02 1.4224900e-01
1.5869000e+00 9.8470500e-02 1.4224900e-01
1.5149811e+00 5.7974767e-02 1.2232208e-01
1.4393344e+00 2.2171333e-02 1.0168544e-01
1.3599600e+00 -8.9398000e-03 8.0339100e-02
1.2768578e+00 -3.5358633e-02 5.8283044e-02
1.1900278e+00 -5.7085167e-02 3.5517278e-02
1.0994700e+00 -7.4119400e-02 1.2041800e-02
1.0994700e+00 -7.4119400e-02 1.2041800e-02
1.0058763e+00 -8.2755178e-02 -8.8242444e-03
9.1554733e-01 -8.8128611e-02 -2.5441044e-02
8.2848300e-01 -9.0239700e-02 -3.7808600e-02
7.4468333e-01 -8.9088444e-02 -4.5926911e-02
6.6414833e-01 -8.4674844e-02 -4.9795978e-02
5.8687800e-01 -7.6998900e-02 -4.9415800e-02
5.8687800e-01 -7.6998900e-02 -4.9415800e-02
5.1801144e-01 -6.7772178e-02 -4.8785122e-02
4.5391711e-01 -5.7876211e-02 -4.7510989e-02
3.9459500e-01 -4.7311000e-02 -4.5593400e-02
3.4004511e-01 -3.6076544e-02 -4.3032356e-02
2.9026744e-01 -2.4172844e-02 -3.9827856e-02
2.4526200e-01 -1.1599900e-02 -3.5979900e-02
2.4526200e-01 -1.1599900e-02 -3.5979900e-02
2.0288531e-01 -5.6090778e-03 -2.7803328e-02
1.6192598e-01 -4.0531778e-04 -1.9024371e-02
1.2238400e-01 4.0113800e-03 -9.6430300e-03
8.4259378e-02 7.6410156e-03 3.4069556e-04
4.7552111e-02 1.0483589e-02 1.0926806e-02
1.2262200e-02 1.2539100e-02 2.2115300e-02
3.4700900e+00 1.5441100e+00 -1.3367600e-01
3.5057244e+00 1.5534611e+00 -1.1064420e-01
3.5391144e+00 1.5583044e+00 -8.8591033e-02
3.5702600e+00 1.5586400e+00 -6.7516500e-02
3.5991611e+00 1.5544678e+00 -4.7420600e-02
3.6258178e+00 1.5457878e+00 -2.8303333e-02
3.6502300e+00 1.5326000e+00 -1.0164700e-02
3.6502300e+00 1.5326000e+00 -1.0164700e-02
3.6689867e+00 1.5037956e+00 2.6687778e-04
3.6855933e+00 1.4727189e+00 5.9477111e-03
3.7000500e+00 1.4393700e+00 6.8778000e-03
3.7123567e+00 1.4037489e+00 3.0571444e-03
3.7225133e+00 1.3658556e+00 -5.5142556e-03
3.7305200e+00 1.3256900e+00 -1.8836400e-02
3.7305200e+00 1.3256900e+00 -1.8836400e-02
3.7374278e+00 1.2814611e+00 -3.0088456e-02
3.7429711e+00 1.2440511e+00 -3.9209989e-02
3.7471500e+00 1.2134600e+00 -4.6201000e-02
3.7499644e+00 1.1896878e+00 -5.1061489e-02
3.7514144e+00 1.1727344e+00 -5.3791456e-02
3.7515000e+00 1.1626000e+00 -5.4390900e-02
3.7515000e+00 1.1626000e+00 -5.4390900e-02
3.7564933e+00 1.1706122e+00 -4.7646267e-02
3.7631733e+00 1.1778756e+00 -4.0847567e-02
3.7715400e+00 1.1843900e+00 -3.3994800e-02
3.7815933e+00 1.1901556e+00 -2.7087967e-02
3.7933333e+00 1.1951722e+00 -2.0127067e-02
3.8067600e+00 1.1994400e+00 -1.3112100e-02
3.4162500e+00 1.5146200e+00 -9.0361000e-03
3.4291244e+00 1.5183844e+00 2.0060767e-02
3.4403644e+00 1.5191244e+00 4.4390567e-02
3.4499700e+00 1.5168400e+00 6.3953300e-02
3.4579411e+00 1.5115311e+00 7.8748967e-02
3.4642778e+00 1.5031978e+00 8.8777567e-02
3.4689800e+00 1.4918400e+00 9.4039100e-02
3.8680000e+00 6.1634800e-01 -1.4079200e-01
3.8141622e+00 5.5357811e-01 -1.3449978e-01
3.7572022e+00 4.9256978e-01 -1.2542444e-01
3.6971200e+00 4.3332300e-01 -1.1356600e-01
3.6339156e+00 3.7583778e-01 -9.8924444e-02
3.5675889e+00 3.2011411e-01 -8.1499778e-02
3.4981400e+00 2.6615200e-01 -6.1292000e-02
3.4981400e+00 2.6615200e-01 -6.1292000e-02
3.4547889e+00 2.2772844e-01 -4.7364467e-02
3.4091922e+00 1.9339978e-01 -3.1202933e-02
3.3613500e+00 1.6316600e-01 -1.2807400e-02
3.3112622e+00 1.3702711e-01 7.8221333e-03
3.2589289e+00 1.1498311e-01 3.0685667e-02
3.2043500e+00 9.7034000e-02 5.5783200e-02
3.2043500e+00 9.7034000e-02 5.5783200e-02
3.1422944e+00 7.9019044e-02 7.8641667e-02
3.0798911e+00 6.2844044e-02 9.8233267e-02
3.0171400e+00 4.8509000e-02 1.1455800e-01
2.9540411e+00 3.6013911e-02 1.2761587e-01
2.8905944e+00 2.5358778e-02 1.3740687e-01
2.8268000e+00 1.6543600e-02 1.4393100e-01
2.8268000e+00 1.6543600e-02 1.4393100e-01
2.7577433e+00 9.2948644e-03 1.4445744e-01
2.6891933e+00 3.1804744e-03 1.4187044e-01
2.6211500e+00 -1.7995700e-03 1.3617000e-01
2.5536133e+00 -5.6452689e-03 1.2735611e-01
2.4865833e+00 -8.3566222e-03 1.1542878e-01
2.4200600e+00 -9.9336300e-03 1.0038800e-01
2.4200600e+00 -9.9336300e-03 1.0038800e-01
2.3614100e+00 -7.7175278e-03 8.8516367e-02
2.3045267e+00 -4.3517978e-03 7.6405900e-02
2.2494100e+00 1.6356000e-04 6.4056600e-02
2.1960600e+00 5.8285456e-03 5.1468467e-02
2.1444767e+00 1.2643159e-02 3.8641500e-02
2.0946600e+00 2.0607400e-02 2.5575700e-02
2.0946600e+00 2.0607400e-02 2.5575700e-02
2.0445989e+00 2.6992467e-02 1.0646544e-02
1.9943556e+00 3.4000467e-02 -4.3524556e-03
1.9439300e+00 4.1631400e-02 -1.9421300e-02
1.8933222e+00 4.9885267e-02 -3.4559989e-02
1.8425322e+00 5.8762067e-02 -4.9768522e-02
1.7915600e+00 6.8261800e-02 -6.5046900e-02
1.7915600e+00 6.8261800e-02 -6.5046900e-02
1.7429244e+00 7.6290111e-02 -7.9141500e-02
1.6919778e+00 8.5721044e-02 -9.1949533e-02
1.6387200e+00 9.6554600e-02 -1.0347100e-01
1.5831511e+00 1.0879078e-01 -1.1370590e-01
1.5252711e+00 1.2242958e-01 -1.2265423e-01
1.4650800e+00 1.3747100e-01 -1.3031600e-01
1.4650800e+00 1.3747100e-01 -1.3031600e-01
1.3995989e+00 1.5561411e-01 -1.3688222e-01
1.3331256e+00 1.7092878e-01 -1.4199289e-01
1.2656600e+00 1.8341500e-01 -1.4564800e-01
1.1972022e+00 1.9307278e-01 -1.4784756e-01
1.1277522e+00 1.9990211e-01 -1.4859156e-01
1.0573100e+00 2.0390300e-01 -1.4788000e-01
1.0573100e+00 2.0390300e-01 -1.4788000e-01
9.8019678e-01 2.0510544e-01 -1.4599904e-01
9.0568178e-01 2.0397211e-01 -1.4054004e-01
8.3376500e-01 2.0050300e-01 -1.3150300e-01
7.6444644e-01 1.9469811e-01 -1.1888791e-01
6.9772611e-01 1.8655744e-01 -1.0269478e-01
6.3360400e-01 1.7608100e-01 -8.2923600e-02
6.3360400e-01 1.7608100e-01 -8.2923600e-02
5.6350800e-01 1.6993144e-01 -4.7040822e-02
4.9591700e-01 1.6132644e-01 -1.3543522e-02
4.3083100e-01 1.5026600e-01 1.7568300e-02
3.6825000e-01 1.3675011e-01 4.6294644e-02
3.0817400e-01 1.2077878e-01 7.2635511e-02
2.5060300e-01 1.0235200e-01 9.6590900e-02
2.5060300e-01 1.0235200e-01 9.6590900e-02
2.1787094e-01 8.5689344e-02 8.3319593e-02
1.8306428e-01 6.6937211e-02 6.8733493e-02
1.4618300e-01 4.6095600e-02 5.2832600e-02
1.0722711e-01 2.3164511e-02 3.5616913e-02
6.6196611e-02 -1.8560556e-03 1.7086433e-02
2.3091500e-02 -2.8966100e-02 -2.7588400e-03
1.1575800e+01 6.9431900e-01 1.4205600e-01
1.1546389e+01 6.3202800e-01 1.5989844e-01
1.1515689e+01 5.7231733e-01 1.7722611e-01
1.1483700e+01 5.1518700e-01 1.9403900e-01
1.1450422e+01 4.6063700e-01 2.1033711e-01
1.1415856e+01 4.0866733e-01 2.2612044e-01
1.1380000e+01 3.5927800e-01 2.4138900e-01
1.1380000e+01 3.5927800e-01 2.4138900e-01
1.1346611e+01 3.2269444e-01 2.5412511e-01
1.1311444e+01 2.9547644e-01 2.6531178e-01
1.1274500e+01 2.7762400e-01 2.7494900e-01
1.1235778e+01 2.6913711e-01 2.8303678e-01
1.1195278e+01 2.7001578e-01 2.8957511e-01
1.1153000e+01 2.8026000e-01 2.9456400e-01
1.1153000e+01 2.8026000e-01 2.9456400e-01
1.1113944e+01 2.8783722e-01 2.9623133e-01
1.1072644e+01 2.9697389e-01 2.9786833e-01
1.1029100e+01 3.0767000e-01 2.9947500e-01
1.0983311e+01 3.1992556e-01 3.0105133e-01
1.0935278e+01 3.3374056e-01 3.0259733e-01
1.0885000e+01 3.4911500e-01 3.0411300e-01
1.0885000e+01 3.4911500e-01 3.0411300e-01
1.0817433e+01 3.7103244e-01 3.1067389e-01
1.0752133e+01 3.8240578e-01 3.1693989e-01
1.0689100e+01 3.8323500e-01 3.2291100e-01
1.0628333e+01 3.7352011e-01 3.2858722e-01
1.0569833e+01 3.5326111e-01 3.3396856e-01
1.0513600e+01 3.2245800e-01 3.3905500e-01
1.0513600e+01 3.2245800e-01 3.3905500e-01
1.0467311e+01 2.8539651e-01 3.3327411e-01
1.0423378e+01 2.4796884e-01 3.2431311e-01
1.0381800e+01 2.1017500e-01 3.1217200e-01
1.0342578e+01 1.7201498e-01 2.9685078e-01
1.0305711e+01 1.3348878e-01 2.7834944e-01
1.0271200e+01 9.4596400e-02 2.5666800e-01
1.0271200e+01 9.4596400e-02 2.5666800e-01
1.0234338e+01 1.3716200e-01 2.6081922e-01
1.0193271e+01 1.7748287e-01 2.6334322e-01
1.0148000e+01 2.1555900e-01 2.6424000e-01
1.0098524e+01 2.5139040e-01 2.6350956e-01
1.0044844e+01 2.8497707e-01 2.6115189e-01
9.9869600e+00 3.1631900e-01 2.5716700e-01
9.9869600e+00 3.1631900e-01 2.5716700e-01
9.9282556e+00 3.3907033e-01 2.4369067e-01
9.8711989e+00 3.5349833e-01 2.2690867e-01
9.8157900e+00 3.5960300e-01 2.0682100e-01
9.7620289e+00 3.5738433e-01 1.8342767e-01
9.7099156e+00 3.4684233e-01 1.5672867e-01
9.6594500e+00 3.2797700e-01 1.2672400e-01
9.6594500e+00 3.2797700e-01 1.2672400e-01
9.6102722e+00 2.9766022e-01 1.0380430e-01
9.5581356e+00 2.6730122e-01 8.0078933e-02
9.5030400e+00 2.3690000e-01 5.5547900e-02
9.4449856e+00 2.0645656e-01 3.0211200e-02
9.3839722e+00 1.7597089e-01 4.0688333e-03
9.3200000e+00 1.4544300e-01 -2.2879200e-02
9.3200000e+00 1.4544300e-01 -2.2879200e-02
9.2459422e+00 1.2071789e-01 -5.3813778e-02
9.1694422e+00 1.0511482e-01 -8.0947378e-02
9.0905000e+00 9.8633800e-02 -1.0428000e-01
9.0091156e+00 1.0127482e-01 -1.2381164e-01
8.9252889e+00 1.1303789e-01 -1.3954231e-01
8.8390200e+00 1.3392300e-01 -1.5147200e-01
8.8390200e+00 1.3392300e-01 -1.5147200e-01
8.7590278e+00 1.6769833e-01 -1.5315078e-01
8.6858078e+00 2.0088400e-01 -1.5425178e-01
8.6193600e+00 2.3348000e-01 -1.5477500e-01
8.5596844e+00 2.6548633e-01 -1.5472044e-01
8.5067811e+00 2.9690300e-01 -1.5408811e-01
8.4606500e+00 3.2773000e-01 -1.5287800e-01
8.6451600e+00 3.9983500e-01 -2.0931700e-01
8.6240444e+00 3.8088111e-01 -2.0224467e-01
8.5990744e+00 3.6470178e-01 -1.9423867e-01
8.5702500e+00 3.5129700e-01 -1.8529900e-01
8.5375711e+00 3.4066678e-01 -1.7542567e-01
8.5010378e+00 3.3281111e-01 -1.6461867e-01
8.4606500e+00 3.2773000e-01 -1.5287800e-01
1.1027000e+01 7.4961800e-01 1.7788800e-01
1.0989544e+01 7.2620567e-01 1.5577740e-01
1.0950611e+01 7.0195133e-01 1.3158973e-01
1.0910200e+01 6.7685500e-01 1.0532500e-01
1.0868311e+01 6.5091667e-01 7.6983200e-02
1.0824944e+01 6.2413633e-01 4.6564333e-02
1.0780100e+01 5.9651400e-01 1.4068400e-02
1.0780100e+01 5.9651400e-01 1.4068400e-02
1.0733144e+01 5.5885489e-01 -2.0460511e-02
1.0687378e+01 5.2289556e-01 -4.5986744e-02
1.0642800e+01 4.8863600e-01 -6.2510300e-02
1.0599411e+01 4.5607622e-01 -7.0031178e-02
1.0557211e+01 4.2521622e-01 -6.8549378e-02
1.0516200e+01 3.9605600e-01 -5.8064900e-02
1.0516200e+01 3.9605600e-01 -5.8064900e-02
1.0461711e+01 3.9293633e-01 -1.8946778e-02
1.0404578e+01 3.9273500e-01 1.8894356e-02
1.0344800e+01 3.9545200e-01 5.5458500e-02
1.0282378e+01 4.0108733e-01 9.0745656e-02
1.0217311e+01 4.0964100e-01 1.2475582e-01
1.0149600e+01 4.2111300e-01 1.5748900e-01
1.0149600e+01 4.2111300e-01 1.5748900e-01
1.0082527e+01 4.2818956e-01 1.8618611e-01
1.0011837e+01 4.3179489e-01 2.1228744e-01
9.9375300e+00 4.3192900e-01 2.3579300e-01
9.8596067e+00 4.2859189e-01 2.5670278e-01
9.7780667e+00 4.2178356e-01 2.7501678e-01
9.6929100e+00 4.1150400e-01 2.9073500e-01
9.6929100e+00 4.1150400e-01 2.9073500e-01
9.5981478e+00 3.8343822e-01 2.6363293e-01
9.5005511e+00 3.6455589e-01 2.2662127e-01
9.4001200e+00 3.5485700e-01 1.7970000e-01
9.2968544e+00 3.5434156e-01 1.2286913e-01
9.1907544e+00 3.6300956e-01 5.6128667e-02
9.0818200e+00 3.8086100e-01 -2.0521400e-02
9.0818200e+00 3.8086100e-01 -2.0521400e-02
8.9859767e+00 3.9633944e-01 -7.6670000e-02
8.8993600e+00 4.0689144e-01 -1.2294553e-01
8.8219700e+00 4.1251700e-01 -1.5934800e-01
8.7538067e+00 4.1321611e-01 -1.8587740e-01
8.6948700e+00 4.0898878e-01 -2.0253373e-01
8.6451600e+00 3.9983500e-01 -2.0931700e-01
6.4613000e+00 7.9919800e-01 -1.8187900e-01
6.5119511e+00 7.5275033e-01 -1.6745000e-01
6.5716211e+00 7.0672800e-01 -1.5679533e-01
6.6403100e+00 6.6113100e-01 -1.4991500e-01
6.7180178e+00 6.1595933e-01 -1.4680900e-01
6.8047444e+00 5.7121300e-01 -1.4747733e-01
6.9004900e+00 5.2689200e-01 -1.5192000e-01
6.9004900e+00 5.2689200e-01 -1.5192000e-01
7.0109089e+00 5.0821467e-01 -1.5136300e-01
7.1250022e+00 4.9954967e-01 -1.4906567e-01
7.2427700e+00 5.0089700e-01 -1.4502800e-01
7.3642122e+00 5.1225667e-01 -1.3925000e-01
7.4893289e+00 5.3362867e-01 -1.3173167e-01
7.6181200e+00 5.6501300e-01 -1.2247300e-01
7.6181200e+00 5.6501300e-01 -1.2247300e-01
7.7363844e+00 6.0026778e-01 -1.2129056e-01
7.8513044e+00 6.2610478e-01 -1.2222756e-01
7.9628800e+00 6.4252400e-01 -1.2528400e-01
8.0711111e+00 6.4952544e-01 -1.3045989e-01
8.1759978e+00 6.4710911e-01 -1.3775522e-01
8.2775400e+00 6.3527500e-01 -1.4717000e-01
8.2775400e+00 6.3527500e-01 -1.4717000e-01
8.3609267e+00 5.9944722e-01 -1.5984033e-01
8.4354667e+00 5.6225456e-01 -1.7158567e-01
8.5011600e+00 5.2369700e-01 -1.8240600e-01
8.5580067e+00 4.8377456e-01 -1.9230133e-01
8.6060067e+00 4.4248722e-01 -2.0127167e-01
8.6451600e+00 3.9983500e-01 -2.0931700e-01