# vtk DataFile Version 2.0
test
ASCII
DATASET POLYDATA
POINTS 4361 float
5.6548122e+00 7.2225325e+00 1.1858594e+01
5.7700456e+00 7.2761431e+00 1.1735379e+01
5.8868065e+00 7.3283580e+00 1.1613079e+01
6.0050950e+00 7.3791771e+00 1.1491693e+01
6.1249111e+00 7.4286003e+00 1.1371220e+01
6.2462547e+00 7.4766277e+00 1.1251662e+01
6.3691258e+00 7.5232594e+00 1.1133018e+01
6.3691258e+00 7.5232594e+00 1.1133018e+01
6.4950423e+00 7.5780153e+00 1.1018170e+01
6.6268158e+00 7.6309603e+00 1.0910954e+01
6.7644465e+00 7.6820945e+00 1.0811371e+01
6.9079341e+00 7.7314179e+00 1.0719420e+01
7.0572788e+00 7.7789304e+00 1.0635102e+01
7.2124806e+00 7.8246321e+00 1.0558415e+01
7.2124806e+00 7.8246321e+00 1.0558415e+01
7.3799447e+00 7.8635456e+00 1.0504974e+01
7.5492985e+00 7.9004212e+00 1.0467066e+01
7.7205420e+00 7.9352590e+00 1.0444689e+01
7.8936753e+00 7.9680590e+00 1.0437845e+01
8.0686983e+00 7.9988211e+00 1.0446533e+01
8.2456111e+00 8.0275454e+00 1.0470753e+01
8.2456111e+00 8.0275454e+00 1.0470753e+01
8.4204656e+00 8.0521859e+00 1.0495472e+01
8.5949367e+00 8.0749081e+00 1.0523736e+01
8.7690242e+00 8.0957122e+00 1.0555545e+01
8.9427282e+00 8.1145980e+00 1.0590898e+01
9.1160486e+00 8.1315657e+00 1.0629797e+01
9.2889856e+00 8.1466151e+00 1.0672241e+01
9.2889856e+00 8.1466151e+00 1.0672241e+01
9.4616843e+00 8.1597450e+00 1.0716473e+01
9.6353119e+00 8.1709587e+00 1.0756400e+01
9.8098682e+00 8.1802561e+00 1.0792022e+01
9.9853534e+00 8.1876373e+00 1.0823339e+01
1.0161767e+01 8.1931022e+00 1.0850351e+01
1.0339110e+01 8.1966509e+00 1.0873057e+01
1.0339110e+01 8.1966509e+00 1.0873057e+01
1.0519142e+01 8.1973285e+00 1.0887137e+01
1.0697315e+01 8.1961388e+00 1.0886765e+01
1.0873629e+01 8.1930817e+00 1.0871943e+01
1.1048086e+01 8.1881572e+00 1.0842670e+01
1.1220685e+01 8.1813654e+00 1.0798947e+01
1.1391425e+01 8.1727062e+00 1.0740772e+01
1.1391425e+01 8.1727062e+00 1.0740772e+01
1.1554725e+01 8.1618651e+00 1.0664407e+01
1.1709432e+01 8.1525223e+00 1.0576355e+01
1.1855547e+01 8.1446777e+00 1.0476615e+01
1.1993070e+01 8.1383314e+00 1.0365188e+01
1.2122000e+01 8.1334834e+00 1.0242074e+01
1.2242338e+01 8.1301336e+00 1.0107273e+01
1.2242338e+01 8.1301336e+00 1.0107273e+01
1.2348562e+01 8.1487029e+00 9.9643681e+00
1.2453761e+01 8.1641696e+00 9.8203517e+00
1.2557934e+01 8.1765338e+00 9.6752234e+00
1.2661080e+01 8.1857955e+00 9.5289834e+00
1.2763201e+01 8.1919547e+00 9.3816315e+00
1.2864296e+01 8.1950114e+00 9.2331678e+00
1.2864296e+01 8.1950114e+00 9.2331678e+00
1.2757031e+01 8.1204000e+00 9.1007375e+00
1.2649708e+01 8.0420552e+00 8.9710322e+00
1.2542328e+01 7.9599768e+00 8.8440517e+00
1.2434891e+01 7.8741649e+00 8.7197962e+00
1.2327396e+01 7.7846195e+00 8.5982657e+00
1.2219843e+01 7.6913406e+00 8.4794600e+00
1.2219843e+01 7.6913406e+00 8.4794600e+00
1.2111484e+01 7.6164432e+00 8.3489637e+00
1.2006696e+01 7.5403689e+00 8.2166300e+00
1.1905479e+01 7.4631177e+00 8.0824591e+00
1.1807832e+01 7.3846897e+00 7.9464509e+00
1.1713756e+01 7.3050847e+00 7.8086055e+00
1.1623250e+01 7.2243030e+00 7.6689228e+00
1.1623250e+01 7.2243030e+00 7.6689228e+00
1.1538877e+01 7.1456370e+00 7.5234894e+00
1.1462084e+01 7.0647042e+00 7.3761616e+00
1.1392869e+01 6.9815045e+00 7.2269393e+00
1.1331232e+01 6.8960379e+00 7.0758225e+00
1.1277175e+01 6.8083044e+00 6.9228113e+00
1.1230697e+01 6.7183041e+00 6.7679056e+00
1.1230697e+01 6.7183041e+00 6.7679056e+00
1.1197541e+01 6.6258272e+00 6.6118181e+00
1.1173748e+01 6.5318260e+00 6.4559523e+00
1.1159319e+01 6.4363005e+00 6.3003081e+00
1.1154253e+01 6.3392506e+00 6.1448856e+00
1.1158551e+01 6.2406765e+00 5.9896848e+00
1.1172213e+01 6.1405780e+00 5.8347057e+00
1.1172213e+01 6.1405780e+00 5.8347057e+00
1.1194657e+01 6.0392876e+00 5.6823086e+00
1.1223650e+01 5.9364371e+00 5.5328941e+00
1.1259191e+01 5.8320265e+00 5.3864622e+00
1.1301281e+01 5.7260557e+00 5.2430130e+00
1.1349919e+01 5.6185249e+00 5.1025465e+00
1.1405106e+01 5.5094339e+00 4.9650626e+00
1.1405106e+01 5.5094339e+00 4.9650626e+00
1.1462899e+01 5.3997078e+00 4.8298614e+00
1.1522276e+01 5.2891882e+00 4.6960678e+00
1.1583237e+01 5.1778751e+00 4.5636816e+00
1.1645782e+01 5.0657684e+00 4.4327030e+00
1.1709910e+01 4.9528681e+00 4.3031318e+00
1.1775623e+01 4.8391744e+00 4.1749680e+00
1.1775623e+01 4.8391744e+00 4.1749680e+00
1.1840024e+01 4.7236641e+00 4.0480493e+00
1.1901375e+01 4.6053942e+00 3.9220879e+00
1.1959674e+01 4.4843645e+00 3.7970836e+00
1.2014924e+01 4.3605751e+00 3.6730366e+00
1.2067122e+01 4.2340260e+00 3.5499469e+00
1.2116270e+01 4.1047173e+00 3.4278143e+00
1.2116270e+01 4.1047173e+00 3.4278143e+00
1.2160553e+01 3.9725151e+00 3.3064949e+00
1.2197713e+01 3.8386768e+00 3.1854506e+00
1.2227751e+01 3.7032024e+00 3.0646816e+00
1.2250665e+01 3.5660919e+00 2.9441877e+00
1.2266457e+01 3.4273453e+00 2.8239690e+00
1.2275125e+01 3.2869625e+00 2.7040256e+00
1.2275125e+01 3.2869625e+00 2.7040256e+00
1.2275751e+01 3.1436840e+00 2.5861788e+00
1.2267486e+01 2.9999918e+00 2.4703634e+00
1.2250330e+01 2.8558858e+00 2.3565794e+00
1.2224282e+01 2.7113660e+00 2.2448268e+00
1.2189342e+01 2.5664325e+00 2.1351056e+00
1.2145511e+01 2.4210853e+00 2.0274158e+00
1.2145511e+01 2.4210853e+00 2.0274158e+00
1.2092697e+01 2.2794761e+00 1.9191934e+00
1.2033657e+01 2.1390432e+00 1.8132882e+00
1.1968391e+01 1.9997867e+00 1.7097003e+00
1.1896899e+01 1.8617064e+00 1.6084297e+00
1.1819181e+01 1.7248025e+00 1.5094764e+00
1.1735237e+01 1.5890748e+00 1.4128404e+00
1.1735237e+01 1.5890748e+00 1.4128404e+00
1.1642670e+01 1.4557674e+00 1.3205596e+00
1.1547146e+01 1.3234395e+00 1.2302952e+00
1.1448662e+01 1.1920912e+00 1.1420472e+00
1.1347221e+01 1.0617225e+00 1.0558155e+00
1.1242821e+01 9.3233329e-01 9.7160016e-01
1.1135462e+01 8.0392367e-01 8.8940117e-01
1.1135462e+01 8.0392367e-01 8.8940117e-01
1.1029075e+01 6.7296135e-01 8.0807272e-01
1.0922290e+01 5.4220695e-01 7.2731662e-01
1.0815107e+01 4.1166049e-01 6.4713288e-01
1.0707526e+01 2.8132196e-01 5.6752148e-01
1.0599548e+01 1.5119137e-01 4.8848243e-01
1.0491171e+01 2.1268700e-02 4.1001573e-01
3.3445800e+00 6.1950851e+00 1.1749864e+01
3.3035797e+00 6.1480175e+00 1.1568908e+01
3.2620430e+00 6.0961580e+00 1.1389636e+01
3.2199698e+00 6.0395065e+00 1.1212050e+01
3.1773601e+00 5.9780631e+00 1.1036148e+01
3.1342139e+00 5.9118277e+00 1.0861931e+01
3.0905312e+00 5.8408003e+00 1.0689400e+01
3.0905312e+00 5.8408003e+00 1.0689400e+01
3.0580596e+00 5.7846850e+00 1.0509038e+01
3.0318074e+00 5.7263873e+00 1.0328914e+01
3.0117746e+00 5.6659071e+00 1.0149030e+01
2.9979612e+00 5.6032444e+00 9.9693832e+00
2.9903672e+00 5.5383994e+00 9.7899754e+00
2.9889926e+00 5.4713719e+00 9.6108062e+00
2.9889926e+00 5.4713719e+00 9.6108062e+00
2.9984478e+00 5.3988653e+00 9.4332368e+00
3.0164795e+00 5.3228593e+00 9.2591901e+00
3.0430876e+00 5.2433540e+00 9.0886660e+00
3.0782721e+00 5.1603492e+00 8.9216645e+00
3.1220329e+00 5.0738450e+00 8.7581857e+00
3.1743702e+00 4.9838415e+00 8.5982295e+00
3.1743702e+00 4.9838415e+00 8.5982295e+00
3.2440240e+00 4.8882248e+00 8.4468561e+00
3.3250011e+00 4.7906464e+00 8.3057820e+00
3.4173016e+00 4.6911063e+00 8.1750072e+00
3.5209255e+00 4.5896045e+00 8.0545316e+00
3.6358727e+00 4.4861410e+00 7.9443554e+00
3.7621433e+00 4.3807157e+00 7.8444784e+00
3.7621433e+00 4.3807157e+00 7.8444784e+00
3.8865266e+00 4.2761663e+00 7.7462220e+00
4.0113759e+00 4.1708392e+00 7.6495760e+00
4.1366912e+00 4.0647344e+00 7.5545405e+00
4.2624726e+00 3.9578518e+00 7.4611153e+00
4.3887200e+00 3.8501915e+00 7.3693004e+00
4.5154335e+00 3.7417536e+00 7.2790960e+00
4.5154335e+00 3.7417536e+00 7.2790960e+00
4.6439781e+00 3.6308467e+00 7.1934535e+00
4.7685313e+00 3.5173228e+00 7.1059197e+00
4.8890932e+00 3.4011817e+00 7.0164946e+00
5.0056638e+00 3.2824234e+00 6.9251782e+00
5.1182430e+00 3.1610480e+00 6.8319706e+00
5.2268309e+00 3.0370555e+00 6.7368716e+00
5.2268309e+00 3.0370555e+00 6.7368716e+00
5.3281345e+00 2.9106363e+00 6.6352804e+00
5.4188284e+00 2.7824174e+00 6.5284304e+00
5.4989128e+00 2.6523990e+00 6.4163215e+00
5.5683875e+00 2.5205809e+00 6.2989538e+00
5.6272527e+00 2.3869632e+00 6.1763272e+00
5.6755082e+00 2.2515459e+00 6.0484419e+00
5.6755082e+00 2.2515459e+00 6.0484419e+00
5.7053440e+00 2.1156404e+00 5.9151116e+00
5.7235566e+00 1.9809395e+00 5.7804517e+00
5.7301458e+00 1.8474434e+00 5.6444623e+00
5.7251117e+00 1.7151521e+00 5.5071434e+00
5.7084543e+00 1.5840655e+00 5.3684949e+00
5.6801736e+00 1.4541836e+00 5.2285169e+00
5.6801736e+00 1.4541836e+00 5.2285169e+00
5.6449242e+00 1.3287094e+00 5.0866257e+00
5.6047653e+00 1.2050434e+00 4.9447734e+00
5.5596970e+00 1.0831856e+00 4.8029602e+00
5.5097193e+00 9.6313601e-01 4.6611860e+00
5.4548320e+00 8.4489459e-01 4.5194507e+00
5.3950354e+00 7.2846136e-01 4.3777544e+00
5.3950354e+00 7.2846136e-01 4.3777544e+00
5.3337152e+00 6.0827229e-01 4.2402112e+00
5.2713690e+00 4.8798298e-01 4.1030935e+00
5.2079970e+00 3.6759343e-01 3.9664012e+00
5.1435990e+00 2.4710365e-01 3.8301344e+00
5.0781752e+00 1.2651363e-01 3.6942930e+00
5.0117255e+00 5.8233800e-03 3.5588772e+00
2.1234500e+00 6.0054544e+00 1.3858959e+01
2.1987986e+00 6.1142964e+00 1.3713947e+01
2.2860689e+00 6.2213960e+00 1.3578478e+01
2.3852611e+00 6.3267532e+00 1.3452552e+01
2.4963750e+00 6.4303681e+00 1.3336169e+01
2.6194107e+00 6.5322407e+00 1.3229329e+01
2.7543682e+00 6.6323709e+00 1.3132032e+01
2.7543682e+00 6.6323709e+00 1.3132032e+01
2.9202975e+00 6.7161788e+00 1.3074702e+01
3.0919280e+00 6.7891519e+00 1.3030172e+01
3.2692600e+00 6.8512904e+00 1.2998441e+01
3.4522933e+00 6.9025941e+00 1.2979509e+01
3.6410280e+00 6.9430631e+00 1.2973377e+01
3.8354640e+00 6.9726974e+00 1.2980043e+01
3.8354640e+00 6.9726974e+00 1.2980043e+01
4.0307024e+00 6.9948145e+00 1.2987044e+01
4.2219126e+00 7.0168147e+00 1.2976317e+01
4.4090948e+00 7.0386979e+00 1.2947864e+01
4.5922488e+00 7.0604642e+00 1.2901683e+01
4.7713747e+00 7.0821135e+00 1.2837777e+01
4.9464725e+00 7.1036458e+00 1.2756143e+01
4.9464725e+00 7.1036458e+00 1.2756143e+01
5.0933593e+00 7.1305562e+00 1.2631364e+01
5.2287140e+00 7.1546283e+00 1.2496659e+01
5.3525367e+00 7.1758619e+00 1.2352030e+01
5.4648273e+00 7.1942572e+00 1.2197476e+01
[...]
POINT_DATA 4361
VECTORS U float
2.3579100e+00 7.5968400e-01 -8.6637700e-03
2.3773078e+00 7.4179856e-01 1.8158611e-03
2.3955978e+00 7.2219456e-01 1.0890218e-02
2.4127800e+00 7.0087200e-01 1.8559300e-02
2.4288544e+00 6.7783089e-01 2.4823108e-02
2.4438211e+00 6.5307122e-01 2.9681641e-02
2.4576800e+00 6.2659300e-01 3.3134900e-02
2.4576800e+00 6.2659300e-01 3.3134900e-02
2.4684067e+00 6.0704111e-01 3.6162144e-02
2.4778000e+00 5.8614611e-01 3.6696311e-02
2.4858600e+00 5.6390800e-01 3.4737400e-02
2.4925867e+00 5.4032678e-01 3.0285411e-02
2.4979800e+00 5.1540244e-01 2.3340344e-02
2.5020400e+00 4.8913500e-01 1.3902200e-02
2.5020400e+00 4.8913500e-01 1.3902200e-02
2.5098633e+00 4.5877989e-01 9.1630556e-03
2.5168300e+00 4.3024989e-01 7.1832756e-03
2.5229400e+00 4.0354500e-01 7.9628600e-03
2.5281933e+00 3.7866522e-01 1.1501809e-02
2.5325900e+00 3.5561056e-01 1.7800122e-02
2.5361300e+00 3.3438100e-01 2.6857800e-02
2.5361300e+00 3.3438100e-01 2.6857800e-02
2.5390356e+00 3.1367422e-01 2.8148444e-02
2.5415022e+00 2.9444122e-01 2.9308478e-02
2.5435300e+00 2.7668200e-01 3.0337900e-02
2.5451189e+00 2.6039656e-01 3.1236711e-02
2.5462689e+00 2.4558489e-01 3.2004911e-02
2.5469800e+00 2.3224700e-01 3.2642500e-02
2.5469800e+00 2.3224700e-01 3.2642500e-02
2.5470022e+00 2.1961256e-01 3.5229278e-02
2.5469522e+00 2.0781822e-01 3.7562911e-02
2.5468300e+00 1.9686400e-01 3.9643400e-02
2.5466356e+00 1.8674989e-01 4.1470744e-02
2.5463689e+00 1.7747589e-01 4.3044944e-02
2.5460300e+00 1.6904200e-01 4.4366000e-02
2.5460300e+00 1.6904200e-01 4.4366000e-02
2.5456733e+00 1.6059389e-01 4.5783000e-02
2.5450233e+00 1.5329222e-01 4.5943033e-02
2.5440800e+00 1.4713700e-01 4.4846100e-02
2.5428433e+00 1.4212822e-01 4.2492200e-02
2.5413133e+00 1.3826589e-01 3.8881333e-02
2.5394900e+00 1.3555000e-01 3.4013500e-02
2.5394900e+00 1.3555000e-01 3.4013500e-02
2.5377189e+00 1.3380744e-01 2.9860122e-02
2.5341856e+00 1.3519211e-01 2.4273289e-02
2.5288900e+00 1.3970400e-01 1.7253000e-02
2.5218322e+00 1.4734311e-01 8.7992556e-03
2.5130122e+00 1.5810944e-01 -1.0879444e-03
2.5024300e+00 1.7200300e-01 -1.2408600e-02
2.5024300e+00 1.7200300e-01 -1.2408600e-02
2.4840433e+00 2.0824889e-01 -2.7657022e-02
2.4672700e+00 2.4169189e-01 -4.1699389e-02
2.4521100e+00 2.7233200e-01 -5.4535700e-02
2.4385633e+00 3.0016922e-01 -6.6165956e-02
2.4266300e+00 3.2520356e-01 -7.6590156e-02
2.4163100e+00 3.4743500e-01 -8.5808300e-02
2.4163100e+00 3.4743500e-01 -8.5808300e-02
2.4039067e+00 3.3647156e-01 -7.3998700e-02
2.3901033e+00 3.2228922e-01 -5.8855000e-02
2.3749000e+00 3.0488800e-01 -4.0377200e-02
2.3582967e+00 2.8426789e-01 -1.8565300e-02
2.3402933e+00 2.6042889e-01 6.5807000e-03
2.3208900e+00 2.3337100e-01 3.5060800e-02
2.3208900e+00 2.3337100e-01 3.5060800e-02
2.2981644e+00 2.2574556e-01 5.3186389e-02
2.2742411e+00 2.1850189e-01 7.1033556e-02
2.2491200e+00 2.1164000e-01 8.8602300e-02
2.2228011e+00 2.0515989e-01 1.0589262e-01
2.1952844e+00 1.9906156e-01 1.2290452e-01
2.1665700e+00 1.9334500e-01 1.3963800e-01
2.1665700e+00 1.9334500e-01 1.3963800e-01
2.1369144e+00 1.9202978e-01 1.5290211e-01
2.1055378e+00 1.9048778e-01 1.6502044e-01
2.0724400e+00 1.8871900e-01 1.7599300e-01
2.0376211e+00 1.8672344e-01 1.8581978e-01
2.0010811e+00 1.8450111e-01 1.9450078e-01
1.9628200e+00 1.8205200e-01 2.0203600e-01
1.9628200e+00 1.8205200e-01 2.0203600e-01
1.9255056e+00 1.7903678e-01 2.0764989e-01
1.8876756e+00 1.7547478e-01 2.1109856e-01
1.8493300e+00 1.7136600e-01 2.1238200e-01
1.8104689e+00 1.6671044e-01 2.1150022e-01
1.7710922e+00 1.6150811e-01 2.0845322e-01
1.7312000e+00 1.5575900e-01 2.0324100e-01
1.7312000e+00 1.5575900e-01 2.0324100e-01
1.6919467e+00 1.4892059e-01 1.9653344e-01
1.6538700e+00 1.4091526e-01 1.8963111e-01
1.6169700e+00 1.3174300e-01 1.8253400e-01
1.5812467e+00 1.2140382e-01 1.7524211e-01
1.5467000e+00 1.0989772e-01 1.6775544e-01
1.5133300e+00 9.7224700e-02 1.6007400e-01
1.5133300e+00 9.7224700e-02 1.6007400e-01
1.4797000e+00 8.4339078e-02 1.5186500e-01
1.4461400e+00 7.1668244e-02 1.4306767e-01
1.4126500e+00 5.9212200e-02 1.3368200e-01
1.3792300e+00 4.6970944e-02 1.2370800e-01
1.3458800e+00 3.4944478e-02 1.1314567e-01
1.3126000e+00 2.3132800e-02 1.0199500e-01
1.3126000e+00 2.3132800e-02 1.0199500e-01
1.2780122e+00 1.0951167e-02 9.0817089e-02
1.2418956e+00 -1.8862667e-03 7.9854956e-02
1.2042500e+00 -1.5379500e-02 6.9108600e-02
1.1650756e+00 -2.9528533e-02 5.8578022e-02
1.1243722e+00 -4.4333367e-02 4.8263222e-02
1.0821400e+00 -5.9794000e-02 3.8164200e-02
1.0821400e+00 -5.9794000e-02 3.8164200e-02
1.0379173e+00 -7.5314889e-02 2.8825211e-02
9.9195267e-01 -8.9285556e-02 1.9790578e-02
9.4424600e-01 -1.0170600e-01 1.1060300e-02
8.9479733e-01 -1.1257622e-01 2.6343778e-03
8.4360667e-01 -1.2189622e-01 -5.4871889e-03
7.9067400e-01 -1.2966600e-01 -1.3304400e-02
7.9067400e-01 -1.2966600e-01 -1.3304400e-02
7.3785289e-01 -1.3629767e-01 -1.8585711e-02
6.8602822e-01 -1.4087900e-01 -2.2475711e-02
6.3520000e-01 -1.4341000e-01 -2.4974400e-02
5.8536822e-01 -1.4389067e-01 -2.6081778e-02
5.3653289e-01 -1.4232100e-01 -2.5797844e-02
4.8869400e-01 -1.3870100e-01 -2.4122600e-02
4.8869400e-01 -1.3870100e-01 -2.4122600e-02
4.4425400e-01 -1.3040079e-01 -2.4749378e-02
4.0289200e-01 -1.2143279e-01 -2.5154611e-02
3.6460800e-01 -1.1179700e-01 -2.5338300e-02
3.2940200e-01 -1.0149342e-01 -2.5300444e-02
2.9727400e-01 -9.0522056e-02 -2.5041044e-02
2.6822400e-01 -7.8882900e-02 -2.4560100e-02
2.6822400e-01 -7.8882900e-02 -2.4560100e-02
2.3762578e-01 -6.6814456e-02 -2.2264256e-02
2.0883811e-01 -5.5127089e-02 -1.9685056e-02
1.8186100e-01 -4.3820800e-02 -1.6822500e-02
1.5669444e-01 -3.2895589e-02 -1.3676589e-02
1.3333844e-01 -2.2351456e-02 -1.0247322e-02
1.1179300e-01 -1.2188400e-02 -6.5347000e-03
1.1179300e-01 -1.2188400e-02 -6.5347000e-03
9.3734411e-02 -5.7763056e-03 -3.1582167e-03
7.6620411e-02 3.0142444e-04 2.0578000e-04
6.0451000e-02 6.0447900e-03 3.5572900e-03
4.5226178e-02 1.1453791e-02 6.8963133e-03
3.0945944e-02 1.6528428e-02 1.0222850e-02
1.7610300e-02 2.1268700e-02 1.3536900e-02
2.1264600e+00 9.8357300e-01 1.0530900e-01
2.1080467e+00 9.7273667e-01 1.1187344e-01
2.0867967e+00 9.5769467e-01 1.2020344e-01
2.0627100e+00 9.3844700e-01 1.3029900e-01
2.0357867e+00 9.1499367e-01 1.4216011e-01
2.0060267e+00 8.8733467e-01 1.5578678e-01
1.9734300e+00 8.5547000e-01 1.7117900e-01
1.9734300e+00 8.5547000e-01 1.7117900e-01
1.9475522e+00 8.3972189e-01 1.7934456e-01
1.9199322e+00 8.2363989e-01 1.8669356e-01
1.8905700e+00 8.0722400e-01 1.9322600e-01
1.8594656e+00 7.9047422e-01 1.9894189e-01
1.8266189e+00 7.7339056e-01 2.0384122e-01
1.7920300e+00 7.5597300e-01 2.0792400e-01
1.7920300e+00 7.5597300e-01 2.0792400e-01
1.7555256e+00 7.3587656e-01 2.1115878e-01
1.7159622e+00 7.1447356e-01 2.1186878e-01
1.6733400e+00 6.9176400e-01 2.1005400e-01
1.6276589e+00 6.6774789e-01 2.0571444e-01
1.5789189e+00 6.4242522e-01 1.9885011e-01
1.5271200e+00 6.1579600e-01 1.8946100e-01
1.5271200e+00 6.1579600e-01 1.8946100e-01
1.4817444e+00 5.8511089e-01 1.7867767e-01
1.4415811e+00 5.5376256e-01 1.7104800e-01
1.4066300e+00 5.2175100e-01 1.6657200e-01
1.3768911e+00 4.8907622e-01 1.6524967e-01
1.3523644e+00 4.5573822e-01 1.6708100e-01
1.3330500e+00 4.2173700e-01 1.7206600e-01
1.3330500e+00 4.2173700e-01 1.7206600e-01
1.3095211e+00 3.8960267e-01 1.7317833e-01
1.2853678e+00 3.5833833e-01 1.7274833e-01
1.2605900e+00 3.2794400e-01 1.7077600e-01
1.2351878e+00 2.9841967e-01 1.6726133e-01
1.2091611e+00 2.6976533e-01 1.6220433e-01
1.1825100e+00 2.4198100e-01 1.5560500e-01
1.1825100e+00 2.4198100e-01 1.5560500e-01
1.1581956e+00 2.1377463e-01 1.5248678e-01
1.1321022e+00 1.8584597e-01 1.4823144e-01
1.1042300e+00 1.5819500e-01 1.4283900e-01
1.0745789e+00 1.3082173e-01 1.3630944e-01
1.0431489e+00 1.0372617e-01 1.2864278e-01
1.0099400e+00 7.6908300e-02 1.1983900e-01
1.0099400e+00 7.6908300e-02 1.1983900e-01
9.7299678e-01 5.1623856e-02 1.0742181e-01
9.3286844e-01 2.8558676e-02 9.4083744e-02
8.8955500e-01 7.7127600e-03 7.9824800e-02
8.4305644e-01 -1.0913891e-02 6.4644978e-02
7.9337278e-01 -2.7321278e-02 4.8544278e-02
7.4050400e-01 -4.1509400e-02 3.1522700e-02
7.4050400e-01 -4.1509400e-02 3.1522700e-02
6.8163311e-01 -5.1570800e-02 1.5774094e-02
6.2370044e-01 -5.8870233e-02 2.7632444e-03
5.6670600e-01 -6.3407700e-02 -7.5098500e-03
5.1064978e-01 -6.5183200e-02 -1.5045189e-02
4.5553178e-01 -6.4196733e-02 -1.9842772e-02
4.0135200e-01 -6.0448300e-02 -2.1902600e-02
4.0135200e-01 -6.0448300e-02 -2.1902600e-02
3.5329722e-01 -5.3682100e-02 -2.4172300e-02
3.0845656e-01 -4.6300633e-02 -2.5694133e-02
2.6683000e-01 -3.8303900e-02 -2.6468100e-02
2.2841756e-01 -2.9691900e-02 -2.6494200e-02
1.9321922e-01 -2.0464633e-02 -2.5772433e-02
1.6123500e-01 -1.0622100e-02 -2.4302800e-02
1.6123500e-01 -1.0622100e-02 -2.4302800e-02
1.3213692e-01 -6.0738156e-03 -1.9107222e-02
1.0430412e-01 -2.2484796e-03 -1.3547576e-02
7.7736600e-02 8.5390800e-04 -7.6238600e-03
5.2434360e-02 3.2333471e-03 -1.3360756e-03
2.8397400e-02 4.8898378e-03 5.3157778e-03
5.6257200e-03 5.8233800e-03 1.2331700e-02
2.1234500e+00 1.0357500e+00 -6.0823400e-02
2.1481011e+00 1.0415178e+00 -4.6448556e-02
2.1713111e+00 1.0441078e+00 -3.2673989e-02
2.1930800e+00 1.0435200e+00 -1.9499700e-02
2.2134078e+00 1.0397544e+00 -6.9256889e-03
2.2322944e+00 1.0328111e+00 5.0480444e-03
2.2497400e+00 1.0226900e+00 1.6421500e-02
2.2497400e+00 1.0226900e+00 1.6421500e-02
2.2638756e+00 1.0020339e+00 2.3152867e-02
2.2766256e+00 9.7933156e-01 2.6604200e-02
2.2879900e+00 9.5458300e-01 2.6775500e-02
2.2979689e+00 9.2778822e-01 2.3666767e-02
2.3065622e+00 8.9894722e-01 1.7278000e-02
2.3137700e+00 8.6806000e-01 7.6092000e-03
2.3137700e+00 8.6806000e-01 7.6092000e-03
2.3202267e+00 8.3441500e-01 -7.5911111e-04
2.3252867e+00 8.0551533e-01 -8.0010778e-03
2.3289500e+00 7.8136100e-01 -1.4116700e-02
2.3312167e+00 7.6195200e-01 -1.9105978e-02
2.3320867e+00 7.4728833e-01 -2.2968911e-02
2.3315600e+00 7.3737000e-01 -2.5705500e-02
2.3315600e+00 7.3737000e-01 -2.5705500e-02
2.3326044e+00 7.4082844e-01 -2.4176970e-02
2.3349878e+00 7.4439111e-01 -2.2123737e-02
2.3387100e+00 7.4805800e-01 -1.9545800e-02
2.3437711e+00 7.5182911e-01 -1.6443160e-02
2.3501711e+00 7.5570444e-01 -1.2815817e-02
2.3579100e+00 7.5968400e-01 -8.6637700e-03
2.0766800e+00 1.0170100e+00 2.0913600e-02
2.0884656e+00 1.0171752e+00 4.2278278e-02
2.0988556e+00 1.0150452e+00 6.0723444e-02
2.1078500e+00 1.0106200e+00 7.6249100e-02
2.1154489e+00 1.0038996e+00 8.8855244e-02
2.1216522e+00 9.9488389e-01 9.8541878e-02
2.1264600e+00 9.8357300e-01 1.0530900e-01
2.4163100e+00 3.4743500e-01 -8.5808300e-02
2.3891944e+00 3.0864033e-01 -8.2748556e-02
2.3609444e+00 2.7108033e-01 -7.8254689e-02
2.3315600e+00 2.3475500e-01 -7.2326700e-02
2.3010411e+00 1.9966433e-01 -6.4964589e-02
2.2693878e+00 1.6580833e-01 -5.6168356e-02
2.2366000e+00 1.3318700e-01 -4.5938000e-02
2.2366000e+00 1.3318700e-01 -4.5938000e-02
2.2182289e+00 1.1317076e-01 -4.0626544e-02
2.1978289e+00 9.5403922e-02 -3.3132278e-02
2.1754000e+00 7.9886500e-02 -2.3455200e-02
2.1509422e+00 6.6618489e-02 -1.1595311e-02
2.1244556e+00 5.5599889e-02 2.4473889e-03
2.0959400e+00 4.6830700e-02 1.8672900e-02
2.0959400e+00 4.6830700e-02 1.8672900e-02
2.0629356e+00 3.6517652e-02 3.3457133e-02
2.0292522e+00 2.7245586e-02 4.6538500e-02
1.9948900e+00 1.9014500e-02 5.7917000e-02
1.9598489e+00 1.1824395e-02 6.7592633e-02
1.9241289e+00 5.6752717e-03 7.5565400e-02
1.8877300e+00 5.6712900e-04 8.1835300e-02
1.8877300e+00 5.6712900e-04 8.1835300e-02
1.8424989e+00 -4.1075172e-03 8.5133089e-02
1.7968956e+00 -8.0026602e-03 8.6192389e-02
1.7509200e+00 -1.1118300e-02 8.5013200e-02
1.7045722e+00 -1.3454437e-02 8.1595522e-02
1.6578522e+00 -1.5011070e-02 7.5939356e-02
1.6107600e+00 -1.5788200e-02 6.8044700e-02
1.6107600e+00 -1.5788200e-02 6.8044700e-02
1.5708089e+00 -1.3661237e-02 6.2040578e-02
1.5317922e+00 -1.0680040e-02 5.5694044e-02
1.4937100e+00 -6.8446100e-03 4.9005100e-02
1.4565622e+00 -2.1549467e-03 4.1973744e-02
1.4203489e+00 3.3889500e-03 3.4599978e-02
1.3850700e+00 9.7870800e-03 2.6883800e-02
1.3850700e+00 9.7870800e-03 2.6883800e-02
1.3493811e+00 1.4846144e-02 1.7626178e-02
1.3134411e+00 2.0390051e-02 8.3199778e-03
1.2772500e+00 2.6418800e-02 -1.0348000e-03
1.2408078e+00 3.2932391e-02 -1.0438156e-02
1.2041144e+00 3.9930824e-02 -1.9890089e-02
1.1671700e+00 4.7414100e-02 -2.9390600e-02
1.1671700e+00 4.7414100e-02 -2.9390600e-02
1.1328607e+00 5.3448222e-02 -3.8195544e-02
1.0962973e+00 6.0743089e-02 -4.5915744e-02
1.0574800e+00 6.9298700e-02 -5.2551200e-02
1.0164087e+00 7.9115056e-02 -5.8101911e-02
9.7308333e-01 9.0192156e-02 -6.2567878e-02
9.2750400e-01 1.0253000e-01 -6.5949100e-02
9.2750400e-01 1.0253000e-01 -6.5949100e-02
8.7581544e-01 1.1825311e-01 -6.7348567e-02
8.2471744e-01 1.3119878e-01 -6.7855967e-02
7.7421000e-01 1.4136700e-01 -6.7471300e-02
7.2429311e-01 1.4875778e-01 -6.6194567e-02
6.7496678e-01 1.5337111e-01 -6.4025767e-02
6.2623100e-01 1.5520700e-01 -6.0964900e-02
6.2623100e-01 1.5520700e-01 -6.0964900e-02
5.7336222e-01 1.5407889e-01 -5.7264800e-02
5.2309589e-01 1.5103489e-01 -5.2549467e-02
4.7543200e-01 1.4607500e-01 -4.6818900e-02
4.3037056e-01 1.3919922e-01 -4.0073100e-02
3.8791156e-01 1.3040756e-01 -3.2312067e-02
3.4805500e-01 1.1970000e-01 -2.3535800e-02
3.4805500e-01 1.1970000e-01 -2.3535800e-02
3.0635078e-01 1.0931613e-01 -8.8968889e-03
2.6664278e-01 9.8335833e-02 4.5838111e-03
2.2893100e-01 8.6759100e-02 1.6906300e-02
1.9321544e-01 7.4585933e-02 2.8070578e-02
1.5949611e-01 6.1816333e-02 3.8076644e-02
1.2777300e-01 4.8450300e-02 4.6924500e-02
1.2777300e-01 4.8450300e-02 4.6924500e-02
1.1210064e-01 4.1442389e-02 4.0058651e-02
9.5391144e-02 3.2935489e-02 3.2843718e-02
7.7644500e-02 2.2929600e-02 2.5279700e-02
5.8860711e-02 1.1424722e-02 1.7366598e-02
3.9039778e-02 -1.5791444e-03 9.1044122e-03
1.8181700e-02 -1.6082000e-02 4.9314200e-04
7.4898000e+00 4.8377600e-01 1.3231200e-01
7.4740256e+00 4.4257444e-01 1.4438578e-01
7.4573022e+00 4.0302544e-01 1.5617344e-01
7.4396300e+00 3.6512900e-01 1.6767500e-01
7.4210089e+00 3.2888511e-01 1.7889044e-01
7.4014389e+00 2.9429378e-01 1.8981978e-01
7.3809200e+00 2.6135500e-01 2.0046300e-01
7.3809200e+00 2.6135500e-01 2.0046300e-01
7.3623667e+00 2.3836133e-01 2.0860144e-01
7.3429667e+00 2.2134033e-01 2.1595711e-01
7.3227200e+00 2.1029200e-01 2.2253000e-01
7.3016267e+00 2.0521633e-01 2.2832011e-01
7.2796867e+00 2.0611333e-01 2.3332744e-01
7.2569000e+00 2.1298300e-01 2.3755200e-01
7.2569000e+00 2.1298300e-01 2.3755200e-01
7.2351211e+00 2.1872278e-01 2.4020967e-01
7.2115544e+00 2.2536611e-01 2.4299000e-01
7.1862000e+00 2.3291300e-01 2.4589300e-01
7.1590578e+00 2.4136344e-01 2.4891867e-01
7.1301278e+00 2.5071744e-01 2.5206700e-01
7.0994100e+00 2.6097500e-01 2.5533800e-01
7.0994100e+00 2.6097500e-01 2.5533800e-01
7.0579467e+00 2.7386733e-01 2.6229600e-01
7.0182300e+00 2.8037133e-01 2.6903500e-01
6.9802600e+00 2.8048700e-01 2.7555500e-01
6.9440367e+00 2.7421433e-01 2.8185600e-01
6.9095600e+00 2.6155333e-01 2.8793800e-01
6.8768300e+00 2.4250400e-01 2.9380100e-01
6.8768300e+00 2.4250400e-01 2.9380100e-01
6.8505867e+00 2.2001556e-01 2.9347378e-01
6.8257200e+00 1.9704656e-01 2.9063011e-01
6.8022300e+00 1.7359700e-01 2.8527000e-01
6.7801167e+00 1.4966689e-01 2.7739344e-01
6.7593800e+00 1.2525622e-01 2.6700044e-01
6.7400200e+00 1.0036500e-01 2.5409100e-01
6.7400200e+00 1.0036500e-01 2.5409100e-01
6.7121567e+00 1.2543467e-01 2.5666056e-01
6.6816067e+00 1.4919667e-01 2.5788456e-01
6.6483700e+00 1.7165100e-01 2.5776300e-01
6.6124467e+00 1.9279767e-01 2.5629589e-01
6.5738367e+00 2.1263667e-01 2.5348322e-01
6.5325400e+00 2.3116800e-01 2.4932500e-01
6.5325400e+00 2.3116800e-01 2.4932500e-01
6.4917444e+00 2.4390200e-01 2.3837667e-01
6.4531878e+00 2.5136233e-01 2.2570967e-01
6.4168700e+00 2.5354900e-01 2.1132400e-01
6.3827911e+00 2.5046200e-01 1.9521967e-01
6.3509511e+00 2.4210133e-01 1.7739667e-01
6.3213500e+00 2.2846700e-01 1.5785500e-01
6.3213500e+00 2.2846700e-01 1.5785500e-01
6.2946311e+00 2.0839356e-01 1.4473451e-01
6.2657678e+00 1.8795089e-01 1.3074318e-01
6.2347600e+00 1.6713900e-01 1.1588100e-01
6.2016078e+00 1.4595789e-01 1.0014798e-01
6.1663111e+00 1.2440756e-01 8.3544111e-02
6.1288700e+00 1.0248800e-01 6.6069400e-02
6.1288700e+00 1.0248800e-01 6.6069400e-02
6.0835567e+00 8.2853289e-02 4.4509222e-02
6.0353967e+00 6.9158556e-02 2.5200616e-02
5.9843900e+00 6.1403800e-02 8.1435800e-03
5.9305367e+00 5.9589022e-02 -6.6618844e-03
5.8738367e+00 6.3714222e-02 -1.9215778e-02
5.8142900e+00 7.3779400e-02 -2.9518100e-02
5.8142900e+00 7.3779400e-02 -2.9518100e-02
5.7568822e+00 9.4323889e-02 -3.2745078e-02
5.7046089e+00 1.1447009e-01 -3.5179611e-02
5.6574700e+00 1.3421800e-01 -3.6821700e-02
5.6154656e+00 1.5356762e-01 -3.7671344e-02
5.5785956e+00 1.7251896e-01 -3.7728544e-02
5.5468600e+00 1.9107200e-01 -3.6993300e-02
5.6589700e+00 2.4603600e-01 -7.3316900e-02
5.6474544e+00 2.3139200e-01 -7.0051022e-02
5.6330711e+00 2.1894133e-01 -6.5669922e-02
5.6158200e+00 2.0868400e-01 -6.0173600e-02
5.5957011e+00 2.0062000e-01 -5.3562056e-02
5.5727144e+00 1.9474933e-01 -4.5835289e-02
5.5468600e+00 1.9107200e-01 -3.6993300e-02
7.1326000e+00 5.2365600e-01 1.4436900e-01
7.1093889e+00 5.0748456e-01 1.2962673e-01
7.0857256e+00 4.9081756e-01 1.1380777e-01
7.0616100e+00 4.7365500e-01 9.6912100e-02
7.0370422e+00 4.5599689e-01 7.8939733e-02
7.0120222e+00 4.3784322e-01 5.9890667e-02
6.9865500e+00 4.1919400e-01 3.9764900e-02
6.9865500e+00 4.1919400e-01 3.9764900e-02
6.9610822e+00 3.9523967e-01 1.8854580e-02
6.9362589e+00 3.7254400e-01 3.2542767e-03
6.9120800e+00 3.5110700e-01 -7.0360100e-03
6.8885456e+00 3.3092867e-01 -1.2016280e-02
6.8656556e+00 3.1200900e-01 -1.1686533e-02
6.8434100e+00 2.9434800e-01 -6.0467700e-03
6.8434100e+00 2.9434800e-01 -6.0467700e-03
6.8108989e+00 2.8920644e-01 1.8657406e-02
6.7764322e+00 2.8632244e-01 4.3276896e-02
6.7400100e+00 2.8569600e-01 6.7811700e-02
6.7016322e+00 2.8732711e-01 9.2261819e-02
6.6612989e+00 2.9121578e-01 1.1662725e-01
6.6190100e+00 2.9736200e-01 1.4090800e-01
6.6190100e+00 2.9736200e-01 1.4090800e-01
6.5786222e+00 3.0560078e-01 1.6558556e-01
6.5362656e+00 3.1151744e-01 1.8977856e-01
6.4919400e+00 3.1511200e-01 2.1348700e-01
6.4456456e+00 3.1638444e-01 2.3671089e-01
6.3973822e+00 3.1533478e-01 2.5945022e-01
6.3471500e+00 3.1196300e-01 2.8170500e-01
6.3471500e+00 3.1196300e-01 2.8170500e-01
6.2911033e+00 2.8842433e-01 2.7084409e-01
6.2315533e+00 2.7004700e-01 2.5057176e-01
6.1685000e+00 2.5683100e-01 2.2088800e-01
6.1019433e+00 2.4877633e-01 1.8179282e-01
6.0318833e+00 2.4588300e-01 1.3328622e-01
5.9583200e+00 2.4815100e-01 7.5368200e-02
5.9583200e+00 2.4815100e-01 7.5368200e-02
5.8937978e+00 2.5312433e-01 3.3246656e-02
5.8351278e+00 2.5596733e-01 -1.9386111e-03
5.7823100e+00 2.5668000e-01 -3.0187600e-02
5.7353444e+00 2.5526233e-01 -5.1500311e-02
5.6942311e+00 2.5171433e-01 -6.5876744e-02
5.6589700e+00 2.4603600e-01 -7.3316900e-02
4.1704300e+00 4.5576200e-01 -7.6073700e-02
4.2082244e+00 4.2336933e-01 -6.8125467e-02
4.2528244e+00 3.9206533e-01 -6.3216833e-02
4.3042300e+00 3.6185000e-01 -6.1347800e-02
4.3624411e+00 3.3272333e-01 -6.2518367e-02
4.4274578e+00 3.0468533e-01 -6.6728533e-02
4.4992800e+00 2.7773600e-01 -7.3978300e-02
4.4992800e+00 2.7773600e-01 -7.3978300e-02
4.5759000e+00 2.7188833e-01 -7.4183011e-02
4.6525633e+00 2.7298367e-01 -7.2460544e-02
4.7292700e+00 2.8102200e-01 -6.8810900e-02
4.8060200e+00 2.9600333e-01 -6.3234078e-02
4.8828133e+00 3.1792767e-01 -5.5730078e-02
4.9596500e+00 3.4679500e-01 -4.6298900e-02
4.9596500e+00 3.4679500e-01 -4.6298900e-02
5.0299678e+00 3.7644344e-01 -4.2353133e-02
5.0999478e+00 3.9929411e-01 -3.9492200e-02
5.1695900e+00 4.1534700e-01 -3.7716100e-02
5.2388944e+00 4.2460211e-01 -3.7024833e-02
5.3078611e+00 4.2705944e-01 -3.7418400e-02
5.3764900e+00 4.2271900e-01 -3.8896800e-02
5.3764900e+00 4.2271900e-01 -3.8896800e-02
5.4388533e+00 3.9706267e-01 -4.3888289e-02
5.4951033e+00 3.6989000e-01 -4.9177856e-02
5.5452400e+00 3.4120100e-01 -5.4765500e-02
5.5892633e+00 3.1099567e-01 -6.0651222e-02
5.6271733e+00 2.7927400e-01 -6.6835022e-02
5.6589700e+00 2.4603600e-01 -7.3316900e-02