# vtk DataFile Version 2.0
test
ASCII
DATASET POLYDATA
POINTS 4361 float
5.1762322e+00 7.0706755e+00 1.1858727e+01
5.2887956e+00 7.1279585e+00 1.1733963e+01
5.4031399e+00 7.1841527e+00 1.1610422e+01
5.5192650e+00 7.2392581e+00 1.1488104e+01
5.6371711e+00 7.2932746e+00 1.1367008e+01
5.7568580e+00 7.3462024e+00 1.1247134e+01
5.8783258e+00 7.3980414e+00 1.1128483e+01
5.8783258e+00 7.3980414e+00 1.1128483e+01
6.0032356e+00 7.4563892e+00 1.1013676e+01
6.1342492e+00 7.5130882e+00 1.0907005e+01
6.2713665e+00 7.5681385e+00 1.0808470e+01
6.4145875e+00 7.6215401e+00 1.0718071e+01
6.5639122e+00 7.6732930e+00 1.0635807e+01
6.7193406e+00 7.7233971e+00 1.0561680e+01
6.7193406e+00 7.7233971e+00 1.0561680e+01
6.8860314e+00 7.7677033e+00 1.0509770e+01
7.0546985e+00 7.8096389e+00 1.0472573e+01
7.2253420e+00 7.8492040e+00 1.0450090e+01
7.3979619e+00 7.8863987e+00 1.0442319e+01
7.5725583e+00 7.9212228e+00 1.0449262e+01
7.7491311e+00 7.9536764e+00 1.0470918e+01
7.7491311e+00 7.9536764e+00 1.0470918e+01
7.9238045e+00 7.9819272e+00 1.0494800e+01
8.0981256e+00 8.0080281e+00 1.0522381e+01
8.2720942e+00 8.0319792e+00 1.0553662e+01
8.4457104e+00 8.0537804e+00 1.0588642e+01
8.6189742e+00 8.0734317e+00 1.0627322e+01
8.7918856e+00 8.0909331e+00 1.0669701e+01
8.7918856e+00 8.0909331e+00 1.0669701e+01
8.9646721e+00 8.1064329e+00 1.0713397e+01
9.1383696e+00 8.1198475e+00 1.0752990e+01
9.3129782e+00 8.1311771e+00 1.0788480e+01
9.4884979e+00 8.1404215e+00 1.0819867e+01
9.6649286e+00 8.1475808e+00 1.0847150e+01
9.8422703e+00 8.1526549e+00 1.0870330e+01
9.8422703e+00 8.1526549e+00 1.0870330e+01
1.0022348e+01 8.1548130e+00 1.0884757e+01
1.0200665e+01 8.1549259e+00 1.0884982e+01
1.0377219e+01 8.1529937e+00 1.0871005e+01
1.0552013e+01 8.1490163e+00 1.0842825e+01
1.0725045e+01 8.1429938e+00 1.0800443e+01
1.0896315e+01 8.1349261e+00 1.0743859e+01
1.0896315e+01 8.1349261e+00 1.0743859e+01
1.1060310e+01 8.1244870e+00 1.0669121e+01
1.1215844e+01 8.1147502e+00 1.0582637e+01
1.1362917e+01 8.1057157e+00 1.0484408e+01
1.1501529e+01 8.0973837e+00 1.0374434e+01
1.1631679e+01 8.0897540e+00 1.0252715e+01
1.1753368e+01 8.0828266e+00 1.0119250e+01
1.1753368e+01 8.0828266e+00 1.0119250e+01
1.1861811e+01 8.0932794e+00 9.9773292e+00
1.1968877e+01 8.1012918e+00 9.8342412e+00
1.2074564e+01 8.1068638e+00 9.6899856e+00
1.2178873e+01 8.1099954e+00 9.5445627e+00
1.2281803e+01 8.1106866e+00 9.3979722e+00
1.2383356e+01 8.1089374e+00 9.2502143e+00
1.2383356e+01 8.1089374e+00 9.2502143e+00
1.2278456e+01 8.0365480e+00 9.1159329e+00
1.2173707e+01 7.9609752e+00 8.9836064e+00
1.2069108e+01 7.8822188e+00 8.8532349e+00
1.1964659e+01 7.8002789e+00 8.7248184e+00
1.1860361e+01 7.7151555e+00 8.5983569e+00
1.1756213e+01 7.6268486e+00 8.4738502e+00
1.1756213e+01 7.6268486e+00 8.4738502e+00
1.1651964e+01 7.5534621e+00 8.3399643e+00
1.1551493e+01 7.4790598e+00 8.2041399e+00
1.1454799e+01 7.4036417e+00 8.0663772e+00
1.1361882e+01 7.3272079e+00 7.9266761e+00
1.1272742e+01 7.2497583e+00 7.7850366e+00
1.1187380e+01 7.1712930e+00 7.6414588e+00
1.1187380e+01 7.1712930e+00 7.6414588e+00
1.1108650e+01 7.0935529e+00 7.4929675e+00
1.1037799e+01 7.0135984e+00 7.3427470e+00
1.0974829e+01 6.9314295e+00 7.1907973e+00
1.0919738e+01 6.8470461e+00 7.0371183e+00
1.0872528e+01 6.7604483e+00 6.8817101e+00
1.0833197e+01 6.6716361e+00 6.7245726e+00
1.0833197e+01 6.6716361e+00 6.7245726e+00
1.0806463e+01 6.5804423e+00 6.5665938e+00
1.0789733e+01 6.4877595e+00 6.4093003e+00
1.0783009e+01 6.3935875e+00 6.2526921e+00
1.0786289e+01 6.2979264e+00 6.0967693e+00
1.0799573e+01 6.2007762e+00 5.9415318e+00
1.0822863e+01 6.1021370e+00 5.7869797e+00
1.0822863e+01 6.1021370e+00 5.7869797e+00
1.0854759e+01 6.0025446e+00 5.6355016e+00
1.0892952e+01 5.9016589e+00 5.4871031e+00
1.0937441e+01 5.7994801e+00 5.3417842e+00
1.0988227e+01 5.6960079e+00 5.1995450e+00
1.1045308e+01 5.5912425e+00 5.0603855e+00
1.1108686e+01 5.4851838e+00 4.9243056e+00
1.1108686e+01 5.4851838e+00 4.9243056e+00
1.1174922e+01 5.3787740e+00 4.7905320e+00
1.1242743e+01 5.2714785e+00 4.6583486e+00
1.1312147e+01 5.1632974e+00 4.5277552e+00
1.1383135e+01 5.0542305e+00 4.3987520e+00
1.1455707e+01 4.9442780e+00 4.2713390e+00
1.1529863e+01 4.8334398e+00 4.1455160e+00
1.1529863e+01 4.8334398e+00 4.1455160e+00
1.1602912e+01 4.7205166e+00 4.0211329e+00
1.1673238e+01 4.6049559e+00 3.8975668e+00
1.1740842e+01 4.4867577e+00 3.7748177e+00
1.1805724e+01 4.3659220e+00 3.6528857e+00
1.1867883e+01 4.2424489e+00 3.5317706e+00
1.1927320e+01 4.1163383e+00 3.4114726e+00
1.1927320e+01 4.1163383e+00 3.4114726e+00
1.1981924e+01 3.9873205e+00 3.2914694e+00
1.2029395e+01 3.8561524e+00 3.1716820e+00
1.2069734e+01 3.7228341e+00 3.0521103e+00
1.2102939e+01 3.5873655e+00 2.9327544e+00
1.2129013e+01 3.4497467e+00 2.8136142e+00
1.2147953e+01 3.3099775e+00 2.6946898e+00
1.2147953e+01 3.3099775e+00 2.6946898e+00
1.2158875e+01 3.1668795e+00 2.5777074e+00
1.2160405e+01 3.0230602e+00 2.4625534e+00
1.2152544e+01 2.8785198e+00 2.3492278e+00
1.2135290e+01 2.7332581e+00 2.2377307e+00
1.2108645e+01 2.5872753e+00 2.1280619e+00
1.2072608e+01 2.4405713e+00 2.0202216e+00
1.2072608e+01 2.4405713e+00 2.0202216e+00
1.2026489e+01 2.2971643e+00 1.9121985e+00
1.1973575e+01 2.1549533e+00 1.8065261e+00
1.1913866e+01 2.0139386e+00 1.7032044e+00
1.1847361e+01 1.8741199e+00 1.6022335e+00
1.1774062e+01 1.7354974e+00 1.5036133e+00
1.1693967e+01 1.5980710e+00 1.4073439e+00
1.1693967e+01 1.5980710e+00 1.4073439e+00
1.1605737e+01 1.4630327e+00 1.3149943e+00
1.1514294e+01 1.3290338e+00 1.2246715e+00
1.1419639e+01 1.1960743e+00 1.1363755e+00
1.1321772e+01 1.0641543e+00 1.0501062e+00
1.1220693e+01 9.3327371e-01 9.6586366e-01
1.1116402e+01 8.0343257e-01 8.8364787e-01
1.1116402e+01 8.0343257e-01 8.8364787e-01
1.1012598e+01 6.7166513e-01 8.0269513e-01
1.0908294e+01 5.4008707e-01 7.2230420e-01
1.0803488e+01 4.0869840e-01 6.4247509e-01
1.0698182e+01 2.7749912e-01 5.6320779e-01
1.0592375e+01 1.4648922e-01 4.8450230e-01
1.0486066e+01 1.5668700e-02 4.0635863e-01
2.9037600e+00 6.0098361e+00 1.1740090e+01
2.8662075e+00 5.9651359e+00 1.1557663e+01
2.8286675e+00 5.9164460e+00 1.1376425e+01
2.7911398e+00 5.8637665e+00 1.1196375e+01
2.7536245e+00 5.8070974e+00 1.1017513e+01
2.7161217e+00 5.7464387e+00 1.0839840e+01
2.6786312e+00 5.6817903e+00 1.0663356e+01
2.6786312e+00 5.6817903e+00 1.0663356e+01
2.6508940e+00 5.6290616e+00 1.0480981e+01
2.6297185e+00 5.5741562e+00 1.0298967e+01
2.6151046e+00 5.5170741e+00 1.0117312e+01
2.6070523e+00 5.4578153e+00 9.9360164e+00
2.6055616e+00 5.3963799e+00 9.7550809e+00
2.6106326e+00 5.3327679e+00 9.5745052e+00
2.6106326e+00 5.3327679e+00 9.5745052e+00
2.6276989e+00 5.2637026e+00 9.3958209e+00
2.6540773e+00 5.1912626e+00 9.2211438e+00
2.6897676e+00 5.1154480e+00 9.0504740e+00
2.7347698e+00 5.0362585e+00 8.8838113e+00
2.7890840e+00 4.9536944e+00 8.7211558e+00
2.8527102e+00 4.8677555e+00 8.5625075e+00
2.8527102e+00 4.8677555e+00 8.5625075e+00
2.9320129e+00 4.7772563e+00 8.4127299e+00
3.0216000e+00 4.6850666e+00 8.2727528e+00
3.1214716e+00 4.5911863e+00 8.1425762e+00
3.2316277e+00 4.4956154e+00 8.0222001e+00
3.3520682e+00 4.3983538e+00 7.9116245e+00
3.4827933e+00 4.2994017e+00 7.8108494e+00
3.4827933e+00 4.2994017e+00 7.8108494e+00
3.6123844e+00 4.2010104e+00 7.7122560e+00
3.7426441e+00 4.1016936e+00 7.6156820e+00
3.8735722e+00 4.0014514e+00 7.5211275e+00
4.0051688e+00 3.9002836e+00 7.4285923e+00
4.1374339e+00 3.7981903e+00 7.3380764e+00
4.2703675e+00 3.6951716e+00 7.2495800e+00
4.2703675e+00 3.6951716e+00 7.2495800e+00
4.4049573e+00 3.5899495e+00 7.1653930e+00
4.5360696e+00 3.4821405e+00 7.0794929e+00
4.6637042e+00 3.3717447e+00 6.9918796e+00
4.7878614e+00 3.2587619e+00 6.9025531e+00
4.9085409e+00 3.1431922e+00 6.8115134e+00
5.0257429e+00 3.0250356e+00 6.7187606e+00
5.0257429e+00 3.0250356e+00 6.7187606e+00
5.1367640e+00 2.9042007e+00 6.6200909e+00
5.2377340e+00 2.7808533e+00 6.5162527e+00
5.3286528e+00 2.6549934e+00 6.4072460e+00
5.4095204e+00 2.5266210e+00 6.2930708e+00
5.4803369e+00 2.3957362e+00 6.1737272e+00
5.5411022e+00 2.2623389e+00 6.0492152e+00
5.5411022e+00 2.2623389e+00 6.0492152e+00
5.5836119e+00 2.1269981e+00 5.9186626e+00
5.6138591e+00 1.9924964e+00 5.7861278e+00
5.6318438e+00 1.8588339e+00 5.6516107e+00
5.6375659e+00 1.7260106e+00 5.5151114e+00
5.6310256e+00 1.5940264e+00 5.3766299e+00
5.6122226e+00 1.4628814e+00 5.2361662e+00
5.6122226e+00 1.4628814e+00 5.2361662e+00
5.5851307e+00 1.3362603e+00 5.0937680e+00
5.5524858e+00 1.2113825e+00 4.9514012e+00
5.5142880e+00 1.0882480e+00 4.8090657e+00
5.4705374e+00 9.6685684e-01 4.6667616e+00
5.4212338e+00 8.4720898e-01 4.5244889e+00
5.3663774e+00 7.2930442e-01 4.3822475e+00
5.3663774e+00 7.2930442e-01 4.3822475e+00
5.3098497e+00 6.0845178e-01 4.2436711e+00
5.2521801e+00 4.8759673e-01 4.1054380e+00
5.1933684e+00 3.6673928e-01 3.9675484e+00
5.1334147e+00 2.4587941e-01 3.8300022e+00
5.0723189e+00 1.2501715e-01 3.6927994e+00
5.0100812e+00 4.1524700e-03 3.5559400e+00
1.6835700e+00 5.8176684e+00 1.3877504e+01
1.7546930e+00 5.9252802e+00 1.3729530e+01
1.8380234e+00 6.0316688e+00 1.3591216e+01
1.9335611e+00 6.1368342e+00 1.3462560e+01
2.0413061e+00 6.2407763e+00 1.3343564e+01
2.1612585e+00 6.3434952e+00 1.3234227e+01
2.2934182e+00 6.4449909e+00 1.3134549e+01
2.2934182e+00 6.4449909e+00 1.3134549e+01
2.4573019e+00 6.5320458e+00 1.3075806e+01
2.6271625e+00 6.6085329e+00 1.3030450e+01
2.8030000e+00 6.6744524e+00 1.2998480e+01
2.9848144e+00 6.7298041e+00 1.2979896e+01
3.1726058e+00 6.7745881e+00 1.2974698e+01
3.3663740e+00 6.8088044e+00 1.2982887e+01
3.3663740e+00 6.8088044e+00 1.2982887e+01
3.5610957e+00 6.8360294e+00 1.2991182e+01
3.7518893e+00 6.8622719e+00 1.2981463e+01
3.9387548e+00 6.8875319e+00 1.2953731e+01
4.1216921e+00 6.9118094e+00 1.2907986e+01
4.3007014e+00 6.9351044e+00 1.2844227e+01
4.4757825e+00 6.9574168e+00 1.2762455e+01
4.4757825e+00 6.9574168e+00 1.2762455e+01
4.6217737e+00 6.9829526e+00 1.2636507e+01
4.7560652e+00 7.0058246e+00 1.2500689e+01
4.8786567e+00 7.0260329e+00 1.2355002e+01
4.9895484e+00 7.0435775e+00 1.2199446e+01
[...]
POINT_DATA 4361
VECTORS U float
1.8793300e+00 6.0782700e-01 -8.5307300e-03
1.8960578e+00 5.9361389e-01 3.9989444e-04
1.9119311e+00 5.7798922e-01 8.2336711e-03
1.9269500e+00 5.6095300e-01 1.4970600e-02
1.9411144e+00 5.4250522e-01 2.0610681e-02
1.9544244e+00 5.2264589e-01 2.5153914e-02
1.9668800e+00 5.0137500e-01 2.8600300e-02
1.9668800e+00 5.0137500e-01 2.8600300e-02
1.9766000e+00 4.8541500e-01 3.1668289e-02
1.9852333e+00 4.6827400e-01 3.2746856e-02
1.9927800e+00 4.4995200e-01 3.1836000e-02
1.9992400e+00 4.3044900e-01 2.8935722e-02
2.0046133e+00 4.0976500e-01 2.4046022e-02
2.0089000e+00 3.8790000e-01 1.7166900e-02
2.0089000e+00 3.8790000e-01 1.7166900e-02
2.0159500e+00 3.6293756e-01 1.3958756e-02
2.0222300e+00 3.3946756e-01 1.2690922e-02
2.0277400e+00 3.1749000e-01 1.3363400e-02
2.0324800e+00 2.9700489e-01 1.5976189e-02
2.0364500e+00 2.7801222e-01 2.0529289e-02
2.0396500e+00 2.6051200e-01 2.7022700e-02
2.0396500e+00 2.6051200e-01 2.7022700e-02
2.0423744e+00 2.4341556e-01 2.7476522e-02
2.0446911e+00 2.2756122e-01 2.7954122e-02
2.0466000e+00 2.1294900e-01 2.8455500e-02
2.0481011e+00 1.9957889e-01 2.8980656e-02
2.0491944e+00 1.8745089e-01 2.9529589e-02
2.0498800e+00 1.7656500e-01 3.0102300e-02
2.0498800e+00 1.7656500e-01 3.0102300e-02
2.0499900e+00 1.6630044e-01 3.2153233e-02
2.0500100e+00 1.5670711e-01 3.4152900e-02
2.0499400e+00 1.4778500e-01 3.6101300e-02
2.0497800e+00 1.3953411e-01 3.7998433e-02
2.0495300e+00 1.3195444e-01 3.9844300e-02
2.0491900e+00 1.2504600e-01 4.1638900e-02
2.0491900e+00 1.2504600e-01 4.1638900e-02
2.0488800e+00 1.1807834e-01 4.3403522e-02
2.0483733e+00 1.1207934e-01 4.4159756e-02
2.0476700e+00 1.0704900e-01 4.3907600e-02
2.0467700e+00 1.0298731e-01 4.2647056e-02
2.0456733e+00 9.9894278e-02 4.0378122e-02
2.0443800e+00 9.7769900e-02 3.7100800e-02
2.0443800e+00 9.7769900e-02 3.7100800e-02
2.0433044e+00 9.6429278e-02 3.4574216e-02
2.0405978e+00 9.7419978e-02 3.0556116e-02
2.0362600e+00 1.0074200e-01 2.5046500e-02
2.0302911e+00 1.0639534e-01 1.8045368e-02
2.0226911e+00 1.1438001e-01 9.5527189e-03
2.0134600e+00 1.2469600e-01 -4.3144600e-04
2.0134600e+00 1.2469600e-01 -4.3144600e-04
1.9972922e+00 1.5282544e-01 -1.4695881e-02
1.9823856e+00 1.7881411e-01 -2.7809899e-02
1.9687400e+00 2.0266200e-01 -3.9773500e-02
1.9563556e+00 2.2436911e-01 -5.0586684e-02
1.9452322e+00 2.4393544e-01 -6.0249450e-02
1.9353700e+00 2.6136100e-01 -6.8761800e-02
1.9353700e+00 2.6136100e-01 -6.8761800e-02
1.9253322e+00 2.5261956e-01 -5.8803333e-02
1.9141022e+00 2.4120922e-01 -4.6280733e-02
1.9016800e+00 2.2713000e-01 -3.1194000e-02
1.8880656e+00 2.1038189e-01 -1.3543133e-02
1.8732589e+00 1.9096489e-01 6.6718667e-03
1.8572600e+00 1.6887900e-01 2.9451000e-02
1.8572600e+00 1.6887900e-01 2.9451000e-02
1.8386444e+00 1.6276444e-01 4.4187000e-02
1.8190378e+00 1.5719278e-01 5.8543467e-02
1.7984400e+00 1.5216400e-01 7.2520400e-02
1.7768511e+00 1.4767811e-01 8.6117800e-02
1.7542711e+00 1.4373511e-01 9.9335667e-02
1.7307000e+00 1.4033500e-01 1.1217400e-01
1.7307000e+00 1.4033500e-01 1.1217400e-01
1.7066867e+00 1.3994567e-01 1.2238022e-01
1.6812533e+00 1.3938200e-01 1.3160589e-01
1.6544000e+00 1.3864400e-01 1.3985100e-01
1.6261267e+00 1.3773167e-01 1.4711556e-01
1.5964333e+00 1.3664500e-01 1.5339956e-01
1.5653200e+00 1.3538400e-01 1.5870300e-01
1.5653200e+00 1.3538400e-01 1.5870300e-01
1.5344278e+00 1.3365189e-01 1.6242556e-01
1.5036611e+00 1.3140822e-01 1.6444656e-01
1.4730200e+00 1.2865300e-01 1.6476600e-01
1.4425044e+00 1.2538622e-01 1.6338389e-01
1.4121144e+00 1.2160789e-01 1.6030022e-01
1.3818500e+00 1.1731800e-01 1.5551500e-01
1.3818500e+00 1.1731800e-01 1.5551500e-01
1.3520489e+00 1.1217760e-01 1.4972644e-01
1.3231722e+00 1.0613713e-01 1.4384011e-01
1.2952200e+00 9.9196600e-02 1.3785600e-01
1.2681922e+00 9.1356000e-02 1.3177411e-01
1.2420889e+00 8.2615333e-02 1.2559444e-01
1.2169100e+00 7.2974600e-02 1.1931700e-01
1.2169100e+00 7.2974600e-02 1.1931700e-01
1.1917233e+00 6.3405256e-02 1.1253556e-01
1.1666067e+00 5.3958556e-02 1.0534842e-01
1.1415600e+00 4.4634500e-02 9.7755600e-02
1.1165833e+00 3.5433089e-02 8.9757089e-02
1.0916767e+00 2.6354322e-02 8.1352889e-02
1.0668400e+00 1.7398200e-02 7.2543000e-02
1.0668400e+00 1.7398200e-02 7.2543000e-02
1.0409000e+00 7.8036111e-03 6.3900667e-02
1.0137593e+00 -2.3245556e-03 5.5333900e-02
9.8541800e-01 -1.2986300e-02 4.6842700e-02
9.5587600e-01 -2.4181622e-02 3.8427067e-02
9.2513333e-01 -3.5910522e-02 3.0087000e-02
8.9319000e-01 -4.8173000e-02 2.1822500e-02
8.9319000e-01 -4.8173000e-02 2.1822500e-02
8.5928811e-01 -6.0509500e-02 1.3799778e-02
8.2363444e-01 -7.1809933e-02 6.0219644e-03
7.8622900e-01 -8.2074300e-02 -1.5109400e-03
7.4707178e-01 -9.1302600e-02 -8.7989356e-03
7.0616278e-01 -9.9494833e-02 -1.5842022e-02
6.6350200e-01 -1.0665100e-01 -2.2640200e-02
6.6350200e-01 -1.0665100e-01 -2.2640200e-02
6.2097656e-01 -1.1310222e-01 -2.7057133e-02
5.7894722e-01 -1.1781056e-01 -3.0285733e-02
5.3741400e-01 -1.2077600e-01 -3.2326000e-02
4.9637689e-01 -1.2199856e-01 -3.3177933e-02
4.5583589e-01 -1.2147822e-01 -3.2841533e-02
4.1579100e-01 -1.1921500e-01 -3.1316800e-02
4.1579100e-01 -1.1921500e-01 -3.1316800e-02
3.7804622e-01 -1.1271264e-01 -3.1744267e-02
3.4281022e-01 -1.0552268e-01 -3.1916733e-02
3.1008300e-01 -9.7645100e-02 -3.1834200e-02
2.7986456e-01 -8.9079911e-02 -3.1496667e-02
2.5215489e-01 -7.9827111e-02 -3.0904133e-02
2.2695400e-01 -6.9886700e-02 -3.0056600e-02
2.2695400e-01 -6.9886700e-02 -3.0056600e-02
2.0069191e-01 -5.9549167e-02 -2.7829556e-02
1.7598658e-01 -4.9532833e-02 -2.5308756e-02
1.5283800e-01 -3.9837700e-02 -2.2494200e-02
1.3124618e-01 -3.0463767e-02 -1.9385889e-02
1.1121111e-01 -2.1411033e-02 -1.5983822e-02
9.2732800e-02 -1.2679500e-02 -1.2288000e-02
9.2732800e-02 -1.2679500e-02 -1.2288000e-02
7.7257867e-02 -7.0725222e-03 -8.5358111e-03
6.2624400e-02 -1.8184556e-03 -4.8066444e-03
4.8832400e-02 3.0827000e-03 -1.1005000e-03
3.5881867e-02 7.6309444e-03 2.5826222e-03
2.3772800e-02 1.1826278e-02 6.2427222e-03
1.2505200e-02 1.5668700e-02 9.8798000e-03
1.6856400e+00 7.9832400e-01 9.5534500e-02
1.6706744e+00 7.8985500e-01 1.0062861e-01
1.6534211e+00 7.7798267e-01 1.0699178e-01
1.6338800e+00 7.6270700e-01 1.1462400e-01
1.6120511e+00 7.4402800e-01 1.2352528e-01
1.5879344e+00 7.2194567e-01 1.3369561e-01
1.5615300e+00 6.9646000e-01 1.4513500e-01
1.5615300e+00 6.9646000e-01 1.4513500e-01
1.5403867e+00 6.8409844e-01 1.5128800e-01
1.5178433e+00 6.7140878e-01 1.5674567e-01
1.4939000e+00 6.5839100e-01 1.6150800e-01
1.4685567e+00 6.4504511e-01 1.6557500e-01
1.4418133e+00 6.3137111e-01 1.6894667e-01
1.4136700e+00 6.1736900e-01 1.7162300e-01
1.4136700e+00 6.1736900e-01 1.7162300e-01
1.3847767e+00 6.0071389e-01 1.7374289e-01
1.3535600e+00 5.8287689e-01 1.7382256e-01
1.3200200e+00 5.6385800e-01 1.7186200e-01
1.2841567e+00 5.4365722e-01 1.6786122e-01
1.2459700e+00 5.2227456e-01 1.6182022e-01
1.2054600e+00 4.9971000e-01 1.5373900e-01
1.2054600e+00 4.9971000e-01 1.5373900e-01
1.1697333e+00 4.7414244e-01 1.4455144e-01
1.1381800e+00 4.4818278e-01 1.3801878e-01
1.1108000e+00 4.2183100e-01 1.3414100e-01
1.0875933e+00 3.9508711e-01 1.3291811e-01
1.0685600e+00 3.6795111e-01 1.3435011e-01
1.0537000e+00 3.4042300e-01 1.3843700e-01
1.0537000e+00 3.4042300e-01 1.3843700e-01
1.0353790e+00 3.1444678e-01 1.3921233e-01
1.0166360e+00 2.8919278e-01 1.3885433e-01
9.9747100e-01 2.6466100e-01 1.3736300e-01
9.7788400e-01 2.4085144e-01 1.3473833e-01
9.5787500e-01 2.1776411e-01 1.3098033e-01
9.3744400e-01 1.9539900e-01 1.2608900e-01
9.3744400e-01 1.9539900e-01 1.2608900e-01
9.1917478e-01 1.7287740e-01 1.2442633e-01
8.9964044e-01 1.5066373e-01 1.2180467e-01
8.7884100e-01 1.2875800e-01 1.1822400e-01
8.5677644e-01 1.0716020e-01 1.1368433e-01
8.3344678e-01 8.5870333e-02 1.0818567e-01
8.0885200e-01 6.4888400e-02 1.0172800e-01
8.0885200e-01 6.4888400e-02 1.0172800e-01
7.8162633e-01 4.5188267e-02 9.2232278e-02
7.5177400e-01 2.6994533e-02 8.1906044e-02
7.1929500e-01 1.0307200e-02 7.0749300e-02
6.8418933e-01 -4.8737333e-03 5.8762044e-02
6.4645700e-01 -1.8548267e-02 4.5944278e-02
6.0609800e-01 -3.0716400e-02 3.2296000e-02
6.0609800e-01 -3.0716400e-02 3.2296000e-02
5.5990100e-01 -4.0213056e-02 1.9325131e-02
5.1400300e-01 -4.7313322e-02 8.4393222e-03
4.6840400e-01 -5.2017200e-02 -3.6142500e-04
4.2310400e-01 -5.4324689e-02 -7.0771111e-03
3.7810300e-01 -5.4235789e-02 -1.1707736e-02
3.3340100e-01 -5.1750500e-02 -1.4253300e-02
3.3340100e-01 -5.1750500e-02 -1.4253300e-02
2.9350367e-01 -4.6131218e-02 -1.7029978e-02
2.5617700e-01 -3.9961551e-02 -1.9066411e-02
2.2142100e-01 -3.3241500e-02 -2.0362600e-02
1.8923567e-01 -2.5971064e-02 -2.0918544e-02
1.5962100e-01 -1.8150244e-02 -2.0734244e-02
1.3257700e-01 -9.7790400e-03 -1.9809700e-02
1.3257700e-01 -9.7790400e-03 -1.9809700e-02
1.0827151e-01 -5.8943209e-03 -1.5647354e-02
8.5115174e-02 -2.6347222e-03 -1.1202998e-02
6.3108000e-02 -2.4368400e-07 -6.4766300e-03
4.2249984e-02 2.0091145e-03 -1.4682511e-03
2.2541128e-02 3.3933524e-03 3.8221389e-03
3.9814300e-03 4.1524700e-03 9.3945400e-03
1.6835700e+00 8.4796400e-01 -4.2278500e-02
1.7039956e+00 8.5250167e-01 -3.0865567e-02
1.7232656e+00 8.5438067e-01 -1.9936647e-02
1.7413800e+00 8.5360100e-01 -9.4917400e-03
1.7583389e+00 8.5016267e-01 4.6915333e-04
1.7741422e+00 8.4406567e-01 9.9460333e-03
1.7887900e+00 8.3531000e-01 1.8938900e-02
1.7887900e+00 8.3531000e-01 1.8938900e-02
1.8008800e+00 8.1790089e-01 2.4257133e-02
1.8118600e+00 7.9871256e-01 2.6882333e-02
1.8217300e+00 7.7774500e-01 2.6814500e-02
1.8304900e+00 7.5499822e-01 2.4053633e-02
1.8381400e+00 7.3047222e-01 1.8599733e-02
1.8446800e+00 7.0416700e-01 1.0452800e-02
1.8446800e+00 7.0416700e-01 1.0452800e-02
1.8506200e+00 6.7562989e-01 3.3790500e-03
1.8552633e+00 6.5097256e-01 -2.8549800e-03
1.8586100e+00 6.3019500e-01 -8.2492900e-03
1.8606600e+00 6.1329722e-01 -1.2803880e-02
1.8614133e+00 6.0027922e-01 -1.6518750e-02
1.8608700e+00 5.9114100e-01 -1.9393900e-02
1.8608700e+00 5.9114100e-01 -1.9393900e-02
1.8610189e+00 5.9322478e-01 -1.9034086e-02
1.8623389e+00 5.9558744e-01 -1.8093986e-02
1.8648300e+00 5.9822900e-01 -1.6573600e-02
1.8684922e+00 6.0114944e-01 -1.4472929e-02
1.8733256e+00 6.0434878e-01 -1.1791972e-02
1.8793300e+00 6.0782700e-01 -8.5307300e-03
1.6412800e+00 8.3133100e-01 2.4139900e-02
1.6518289e+00 8.3081289e-01 4.1933000e-02
1.6611156e+00 8.2830156e-01 5.7368500e-02
1.6691400e+00 8.2379700e-01 7.0446400e-02
1.6759022e+00 8.1729922e-01 8.1166700e-02
1.6814022e+00 8.0880822e-01 8.9529400e-02
1.6856400e+00 7.9832400e-01 9.5534500e-02
1.9353700e+00 2.6136100e-01 -6.8761800e-02
1.9156733e+00 2.3157450e-01 -6.6288322e-02
1.8952533e+00 2.0283750e-01 -6.2801889e-02
1.8741100e+00 1.7515000e-01 -5.8302500e-02
1.8522433e+00 1.4851200e-01 -5.2790156e-02
1.8296533e+00 1.2292350e-01 -4.6264856e-02
1.8063400e+00 9.8384500e-02 -3.8726600e-02
1.8063400e+00 9.8384500e-02 -3.8726600e-02
1.7935567e+00 8.3738789e-02 -3.5388664e-02
1.7789800e+00 7.0668256e-02 -3.0158931e-02
1.7626100e+00 5.9172900e-02 -2.3037400e-02
1.7444467e+00 4.9252722e-02 -1.4024071e-02
1.7244900e+00 4.0907722e-02 -3.1189444e-03
1.7027400e+00 3.4137900e-02 9.6779800e-03
1.7027400e+00 3.4137900e-02 9.6779800e-03
1.6777578e+00 2.5970813e-02 2.1226778e-02
1.6521578e+00 1.8666880e-02 3.1558418e-02
1.6259400e+00 1.2226100e-02 4.0672900e-02
1.5991044e+00 6.6484733e-03 4.8570224e-02
1.5716511e+00 1.9340000e-03 5.5250391e-02
1.5435800e+00 -1.9173200e-03 6.0713400e-02
1.5435800e+00 -1.9173200e-03 6.0713400e-02
1.5070578e+00 -5.6026111e-03 6.4297389e-02
1.4700311e+00 -8.6470044e-03 6.6052789e-02
1.4325000e+00 -1.1050500e-02 6.5979600e-02
1.3944644e+00 -1.2813098e-02 6.4077822e-02
1.3559244e+00 -1.3934798e-02 6.0347456e-02
1.3168800e+00 -1.4415600e-02 5.4788500e-02
1.3168800e+00 -1.4415600e-02 5.4788500e-02
1.2840133e+00 -1.2447086e-02 5.0541856e-02
1.2518133e+00 -9.7652122e-03 4.5957422e-02
1.2202800e+00 -6.3699800e-03 4.1035200e-02
1.1894133e+00 -2.2613889e-03 3.5775189e-02
1.1592133e+00 2.5605611e-03 3.0177389e-02
1.1296800e+00 8.0958700e-03 2.4241800e-02
1.1296800e+00 8.0958700e-03 2.4241800e-02
1.0997509e+00 1.2476183e-02 1.6985144e-02
1.0695742e+00 1.7273193e-02 9.6944444e-03
1.0391500e+00 2.2486900e-02 2.3697000e-03
1.0084782e+00 2.8117303e-02 -4.9890889e-03
9.7755889e-01 3.4164403e-02 -1.2381922e-02
9.4639200e-01 4.0628200e-02 -1.9808800e-02
9.4639200e-01 4.0628200e-02 -1.9808800e-02
9.1766756e-01 4.5829856e-02 -2.6715867e-02
8.8690122e-01 5.2078322e-02 -3.2684733e-02
8.5409300e-01 5.9373600e-02 -3.7715400e-02
8.1924289e-01 6.7715689e-02 -4.1807867e-02
7.8235089e-01 7.7104589e-02 -4.4962133e-02
7.4341700e-01 8.7540300e-02 -4.7178200e-02
7.4341700e-01 8.7540300e-02 -4.7178200e-02
6.9877267e-01 1.0093750e-01 -4.7358789e-02
6.5504000e-01 1.1186473e-01 -4.6859322e-02
6.1221900e-01 1.2032200e-01 -4.5679800e-02
5.7030967e-01 1.2630930e-01 -4.3820222e-02
5.2931200e-01 1.2982663e-01 -4.1280589e-02
4.8922600e-01 1.3087400e-01 -3.8060900e-02
4.8922600e-01 1.3087400e-01 -3.8060900e-02
4.4591500e-01 1.2918293e-01 -3.4381944e-02
4.0499800e-01 1.2588893e-01 -3.0322311e-02
3.6647500e-01 1.2099200e-01 -2.5882000e-02
3.3034600e-01 1.1449213e-01 -2.1061011e-02
2.9661100e-01 1.0638933e-01 -1.5859344e-02
2.6527000e-01 9.6683600e-02 -1.0277000e-02
2.6527000e-01 9.6683600e-02 -1.0277000e-02
2.3356312e-01 8.7077467e-02 -1.4062333e-03
2.0339146e-01 7.7247100e-02 6.7673333e-03
1.7475500e-01 6.7192500e-02 1.4243700e-02
1.4765376e-01 5.6913667e-02 2.1022867e-02
1.2208772e-01 4.6410600e-02 2.7104833e-02
9.8056900e-02 3.5683300e-02 3.2489600e-02
9.8056900e-02 3.5683300e-02 3.2489600e-02
8.5853411e-02 3.0585167e-02 2.7642051e-02
7.2990978e-02 2.4326767e-02 2.2629817e-02
5.9469600e-02 1.6908100e-02 1.7452900e-02
4.5289278e-02 8.3291667e-03 1.2111298e-02
3.0450011e-02 -1.4100333e-03 6.6050128e-03
1.4951800e-02 -1.2309500e-02 9.3404300e-04
6.0607400e+00 4.0324200e-01 1.1892300e-01
6.0489311e+00 3.6987344e-01 1.2888944e-01
6.0363111e+00 3.3777544e-01 1.3862078e-01
6.0228800e+00 3.0694800e-01 1.4811700e-01
6.0086378e+00 2.7739111e-01 1.5737811e-01
5.9935844e+00 2.4910478e-01 1.6640411e-01
5.9777200e+00 2.2208900e-01 1.7519500e-01
5.9777200e+00 2.2208900e-01 1.7519500e-01
5.9635056e+00 2.0355322e-01 1.8162733e-01
5.9487356e+00 1.8988722e-01 1.8749333e-01
5.9334100e+00 1.8109100e-01 1.9279300e-01
5.9175289e+00 1.7716456e-01 1.9752633e-01
5.9010922e+00 1.7810789e-01 2.0169333e-01
5.8841000e+00 1.8392100e-01 2.0529400e-01
5.8841000e+00 1.8392100e-01 2.0529400e-01
5.8675622e+00 1.8892600e-01 2.0783278e-01
5.8494756e+00 1.9463300e-01 2.1052211e-01
5.8298400e+00 2.0104200e-01 2.1336200e-01
5.8086556e+00 2.0815300e-01 2.1635244e-01
5.7859222e+00 2.1596600e-01 2.1949344e-01
5.7616400e+00 2.2448100e-01 2.2278500e-01
5.7616400e+00 2.2448100e-01 2.2278500e-01
5.7289044e+00 2.3470911e-01 2.2914989e-01
5.6976244e+00 2.3988344e-01 2.3531556e-01
5.6678000e+00 2.4000400e-01 2.4128200e-01
5.6394311e+00 2.3507078e-01 2.4704922e-01
5.6125178e+00 2.2508378e-01 2.5261722e-01
5.5870600e+00 2.1004300e-01 2.5798600e-01
5.5870600e+00 2.1004300e-01 2.5798600e-01
5.5667978e+00 1.9244074e-01 2.5863411e-01
5.5476078e+00 1.7436241e-01 2.5714411e-01
5.5294900e+00 1.5580800e-01 2.5351600e-01
5.5124444e+00 1.3677751e-01 2.4774978e-01
5.4964711e+00 1.1727094e-01 2.3984544e-01
5.4815700e+00 9.7288300e-02 2.2980300e-01
5.4815700e+00 9.7288300e-02 2.2980300e-01
5.4579556e+00 1.1671306e-01 2.3182644e-01
5.4321889e+00 1.3511629e-01 2.3266544e-01
5.4042700e+00 1.5249800e-01 2.3232000e-01
5.3741989e+00 1.6885819e-01 2.3079011e-01
5.3419756e+00 1.8419686e-01 2.2807578e-01
5.3076000e+00 1.9851400e-01 2.2417700e-01
5.3076000e+00 1.9851400e-01 2.2417700e-01
5.2740111e+00 2.0801356e-01 2.1469178e-01
5.2425211e+00 2.1333589e-01 2.0395678e-01
5.2131300e+00 2.1448100e-01 1.9197200e-01
5.1858378e+00 2.1144889e-01 1.7873744e-01
5.1606444e+00 2.0423956e-01 1.6425311e-01
5.1375500e+00 1.9285300e-01 1.4851900e-01
5.1375500e+00 1.9285300e-01 1.4851900e-01
5.1172333e+00 1.7669131e-01 1.3838106e-01
5.0951633e+00 1.6012764e-01 1.2746972e-01
5.0713400e+00 1.4316200e-01 1.1578500e-01
5.0457633e+00 1.2579438e-01 1.0332689e-01
5.0184333e+00 1.0802478e-01 9.0095389e-02
4.9893500e+00 8.9853200e-02 7.6090500e-02
4.9893500e+00 8.9853200e-02 7.6090500e-02
4.9537089e+00 7.3034411e-02 5.8417359e-02
4.9154156e+00 6.0942378e-02 4.2476992e-02
4.8744700e+00 5.3577100e-02 2.8269400e-02
4.8308722e+00 5.0938578e-02 1.5794582e-02
4.7846222e+00 5.3026811e-02 5.0525389e-03
4.7357200e+00 5.9841800e-02 -3.9567300e-03
4.7357200e+00 5.9841800e-02 -3.9567300e-03
4.6878344e+00 7.5638778e-02 -7.1922944e-03
4.6443011e+00 9.1157178e-02 -9.6484511e-03
4.6051200e+00 1.0639700e-01 -1.1325200e-02
4.5702911e+00 1.2135824e-01 -1.2222541e-02
4.5398144e+00 1.3604091e-01 -1.2340474e-02
4.5136900e+00 1.5044500e-01 -1.1679000e-02
4.6020800e+00 1.9678700e-01 -4.1131400e-02
4.5935067e+00 1.8423500e-01 -3.8994222e-02
4.5824700e+00 1.7361433e-01 -3.5748422e-02
4.5689700e+00 1.6492500e-01 -3.1394000e-02
4.5530067e+00 1.5816700e-01 -2.5930956e-02
4.5345800e+00 1.5334033e-01 -1.9359289e-02
4.5136900e+00 1.5044500e-01 -1.1679000e-02
5.7712000e+00 4.3757400e-01 1.2475300e-01
5.7527222e+00 4.2421956e-01 1.1271899e-01
5.7340156e+00 4.1050789e-01 9.9892089e-02
5.7150800e+00 3.9643900e-01 8.6272300e-02
5.6959156e+00 3.8201289e-01 7.1859622e-02
5.6765222e+00 3.6722956e-01 5.6654056e-02
5.6569000e+00 3.5208900e-01 4.0655600e-02
5.6569000e+00 3.5208900e-01 4.0655600e-02
5.6376189e+00 3.3302933e-01 2.4274329e-02
5.6188156e+00 3.1504167e-01 1.2053816e-02
5.6004900e+00 2.9812600e-01 3.9940600e-03
5.5826422e+00 2.8228233e-01 9.5062222e-05
5.5652722e+00 2.6751067e-01 3.5682222e-04
5.5483800e+00 2.5381100e-01 4.7793400e-03
5.5483800e+00 2.5381100e-01 4.7793400e-03
5.5229222e+00 2.4893667e-01 2.4482356e-02
5.4958056e+00 2.4589433e-01 4.4281476e-02
5.4670300e+00 2.4468400e-01 6.4176700e-02
5.4365956e+00 2.4530567e-01 8.4168029e-02
5.4045022e+00 2.4775933e-01 1.0425546e-01
5.3707500e+00 2.5204500e-01 1.2443900e-01
5.3707500e+00 2.5204500e-01 1.2443900e-01
5.3385378e+00 2.5919478e-01 1.4577589e-01
5.3048244e+00 2.6454911e-01 1.6705256e-01
5.2696100e+00 2.6810800e-01 1.8826900e-01
5.2328944e+00 2.6987144e-01 2.0942522e-01
5.1946778e+00 2.6983944e-01 2.3052122e-01
5.1549600e+00 2.6801200e-01 2.5155700e-01
5.1549600e+00 2.6801200e-01 2.5155700e-01
5.1115644e+00 2.4822944e-01 2.4493369e-01
5.0650778e+00 2.3210078e-01 2.2995936e-01
5.0155000e+00 2.1962600e-01 2.0663400e-01
4.9628311e+00 2.1080511e-01 1.7495762e-01
4.9070711e+00 2.0563811e-01 1.3493022e-01
4.8482200e+00 2.0412500e-01 8.6551800e-02
4.8482200e+00 2.0412500e-01 8.6551800e-02
4.7961411e+00 2.0628089e-01 5.1140672e-02
4.7484844e+00 2.0708522e-01 2.1381782e-02
4.7052500e+00 2.0653800e-01 -2.7248700e-03
4.6664378e+00 2.0463922e-01 -2.1179284e-02
4.6320478e+00 2.0138889e-01 -3.3981461e-02
4.6020800e+00 1.9678700e-01 -4.1131400e-02
3.3777800e+00 3.5339400e-01 -4.9287000e-02
3.4100400e+00 3.2657900e-01 -4.3262444e-02
3.4481133e+00 3.0094800e-01 -3.9889478e-02
3.4920000e+00 2.7650100e-01 -3.9168100e-02
3.5417000e+00 2.5323800e-01 -4.1098311e-02
3.5972133e+00 2.3115900e-01 -4.5680111e-02
3.6585400e+00 2.1026400e-01 -5.2913500e-02
3.6585400e+00 2.1026400e-01 -5.2913500e-02
3.7217333e+00 2.0773089e-01 -5.3309567e-02
3.7841367e+00 2.1074722e-01 -5.1950533e-02
3.8457500e+00 2.1931300e-01 -4.8836400e-02
3.9065733e+00 2.3342822e-01 -4.3967167e-02
3.9666067e+00 2.5309289e-01 -3.7342833e-02
4.0258500e+00 2.7830700e-01 -2.8963400e-02
4.0258500e+00 2.7830700e-01 -2.8963400e-02
4.0802256e+00 3.0365833e-01 -2.4903989e-02
4.1349556e+00 3.2343100e-01 -2.1566756e-02
4.1900400e+00 3.3762500e-01 -1.8951700e-02
4.2454789e+00 3.4624033e-01 -1.7058822e-02
4.3012722e+00 3.4927700e-01 -1.5888122e-02
4.3574200e+00 3.4673500e-01 -1.5439600e-02
4.3574200e+00 3.4673500e-01 -1.5439600e-02
4.4106689e+00 3.2552033e-01 -1.8293067e-02
4.4589289e+00 3.0279500e-01 -2.1717933e-02
4.5022000e+00 2.7855900e-01 -2.5714200e-02
4.5404822e+00 2.5281233e-01 -3.0281867e-02
4.5737756e+00 2.2555500e-01 -3.5420933e-02
4.6020800e+00 1.9678700e-01 -4.1131400e-02