# vtk DataFile Version 2.0
test
ASCII
DATASET POLYDATA
POINTS 4361 float
5.4933222e+00 7.1716055e+00 1.1858656e+01
5.6077078e+00 7.2264472e+00 1.1734944e+01
5.7237088e+00 7.2799938e+00 1.1612250e+01
5.8413250e+00 7.3322451e+00 1.1490575e+01
5.9605566e+00 7.3832011e+00 1.1369919e+01
6.0814036e+00 7.4328619e+00 1.1250282e+01
6.2038658e+00 7.4812274e+00 1.1131663e+01
6.2038658e+00 7.4812274e+00 1.1131663e+01
6.3294890e+00 7.5371666e+00 1.1016854e+01
6.4610525e+00 7.5913456e+00 1.0909848e+01
6.5985565e+00 7.6437645e+00 1.0810644e+01
6.7420008e+00 7.6944232e+00 1.0719243e+01
6.8913855e+00 7.7433218e+00 1.0635645e+01
7.0467106e+00 7.7904601e+00 1.0559849e+01
7.0467106e+00 7.7904601e+00 1.0559849e+01
7.2139491e+00 7.8311527e+00 1.0506953e+01
7.3831029e+00 7.8696953e+00 1.0469300e+01
7.5541720e+00 7.9060880e+00 1.0446891e+01
7.7271564e+00 7.9403308e+00 1.0439724e+01
7.9020561e+00 7.9724236e+00 1.0447801e+01
8.0788711e+00 8.0023664e+00 1.0471121e+01
8.0788711e+00 8.0023664e+00 1.0471121e+01
8.2536845e+00 8.0281841e+00 1.0495530e+01
8.4281222e+00 8.0520090e+00 1.0523544e+01
8.6021842e+00 8.0738412e+00 1.0555162e+01
8.7758704e+00 8.0936806e+00 1.0590386e+01
8.9491809e+00 8.1115272e+00 1.0629215e+01
9.1221156e+00 8.1273811e+00 1.0671650e+01
9.1221156e+00 8.1273811e+00 1.0671650e+01
9.2948443e+00 8.1412919e+00 1.0715708e+01
9.4684952e+00 8.1532279e+00 1.0755536e+01
9.6430682e+00 8.1631891e+00 1.0791135e+01
9.8185634e+00 8.1711755e+00 1.0822505e+01
9.9949808e+00 8.1771871e+00 1.0849646e+01
1.0172320e+01 8.1812239e+00 1.0872557e+01
1.0172320e+01 8.1812239e+00 1.0872557e+01
1.0352363e+01 8.1823726e+00 1.0886793e+01
1.0530582e+01 8.1815966e+00 1.0886662e+01
1.0706979e+01 8.1788957e+00 1.0872161e+01
1.0881554e+01 8.1742700e+00 1.0843292e+01
1.1054306e+01 8.1677195e+00 1.0800055e+01
1.1225235e+01 8.1592442e+00 1.0742450e+01
1.1225235e+01 8.1592442e+00 1.0742450e+01
1.1388793e+01 8.1485090e+00 1.0666678e+01
1.1543788e+01 8.1390075e+00 1.0579178e+01
1.1690217e+01 8.1307397e+00 1.0479949e+01
1.1828082e+01 8.1237057e+00 1.0368992e+01
1.1957382e+01 8.1179053e+00 1.0246305e+01
1.2078118e+01 8.1133386e+00 1.0111890e+01
1.2078118e+01 8.1133386e+00 1.0111890e+01
1.2184986e+01 8.1292170e+00 9.9691965e+00
1.2290711e+01 8.1422173e+00 9.8253834e+00
1.2395294e+01 8.1523398e+00 9.6804510e+00
1.2498734e+01 8.1595843e+00 9.5343993e+00
1.2601031e+01 8.1639508e+00 9.3872283e+00
1.2702186e+01 8.1654394e+00 9.2389379e+00
1.2702186e+01 8.1654394e+00 9.2389379e+00
1.2595729e+01 8.0915516e+00 9.1059130e+00
1.2489283e+01 8.0141011e+00 8.9753563e+00
1.2382848e+01 7.9330878e+00 8.8472678e+00
1.2276425e+01 7.8485118e+00 8.7216476e+00
1.2170013e+01 7.7603731e+00 8.5984955e+00
1.2063613e+01 7.6686716e+00 8.4778116e+00
1.2063613e+01 7.6686716e+00 8.4778116e+00
1.1956612e+01 7.5942586e+00 8.3462098e+00
1.1853247e+01 7.5187393e+00 8.2127265e+00
1.1753519e+01 7.4421137e+00 8.0773616e+00
1.1657426e+01 7.3643818e+00 7.9401152e+00
1.1564970e+01 7.2855435e+00 7.8009872e+00
1.1476150e+01 7.2055990e+00 7.6599778e+00
1.1476150e+01 7.2055990e+00 7.6599778e+00
1.1393659e+01 7.1272807e+00 7.5134995e+00
1.1318845e+01 7.0467145e+00 7.3651783e+00
1.1251709e+01 6.9639005e+00 7.2150143e+00
1.1192250e+01 6.8788385e+00 7.0630073e+00
1.1140470e+01 6.7915287e+00 6.9091574e+00
1.1096367e+01 6.7019711e+00 6.7534646e+00
1.1096367e+01 6.7019711e+00 6.7534646e+00
1.1065310e+01 6.6099658e+00 6.5967106e+00
1.1043860e+01 6.5164452e+00 6.4403281e+00
1.1032019e+01 6.4214095e+00 6.2843171e+00
1.1029785e+01 6.3248585e+00 6.1286778e+00
1.1037160e+01 6.2267924e+00 5.9734099e+00
1.1054143e+01 6.1272110e+00 5.8185137e+00
1.1054143e+01 6.1272110e+00 5.8185137e+00
1.1079846e+01 6.0265194e+00 5.6663731e+00
1.1112019e+01 5.9243568e+00 5.5172550e+00
1.1150661e+01 5.8207235e+00 5.3711592e+00
1.1195773e+01 5.7156192e+00 5.2280859e+00
1.1247355e+01 5.6090440e+00 5.0880350e+00
1.1305406e+01 5.5009979e+00 4.9510066e+00
1.1305406e+01 5.5009979e+00 4.9510066e+00
1.1366163e+01 5.3924241e+00 4.8162647e+00
1.1428504e+01 5.2830235e+00 4.6829944e+00
1.1492427e+01 5.1727961e+00 4.5511956e+00
1.1557933e+01 5.0617417e+00 4.4208685e+00
1.1625021e+01 4.9498606e+00 4.2920129e+00
1.1693693e+01 4.8371526e+00 4.1646288e+00
1.1693693e+01 4.8371526e+00 4.1646288e+00
1.1761114e+01 4.7225180e+00 4.0385612e+00
1.1825591e+01 4.6051602e+00 3.9133995e+00
1.1887124e+01 4.4850791e+00 3.7891436e+00
1.1945714e+01 4.3622748e+00 3.6657937e+00
1.2001359e+01 4.2367472e+00 3.5433497e+00
1.2054060e+01 4.1084964e+00 3.4218116e+00
1.2054060e+01 4.1084964e+00 3.4218116e+00
1.2101877e+01 3.9773433e+00 3.3008992e+00
1.2142543e+01 3.8443767e+00 3.1802429e+00
1.2176057e+01 3.7095965e+00 3.0598429e+00
1.2202419e+01 3.5730028e+00 2.9396991e+00
1.2221629e+01 3.4345954e+00 2.8198115e+00
1.2233688e+01 3.2943745e+00 2.7001801e+00
1.2233688e+01 3.2943745e+00 2.7001801e+00
1.2237723e+01 3.1511051e+00 2.5826119e+00
1.2232691e+01 3.0073262e+00 2.4670136e+00
1.2218592e+01 2.8630378e+00 2.3533853e+00
1.2195425e+01 2.7182398e+00 2.2417270e+00
1.2163192e+01 2.5729323e+00 2.1320386e+00
1.2121891e+01 2.4271153e+00 2.0243201e+00
1.2121891e+01 2.4271153e+00 2.0243201e+00
1.2071228e+01 2.2849140e+00 1.9161775e+00
1.2014154e+01 2.1439005e+00 1.8103659e+00
1.1950670e+01 2.0040747e+00 1.7068853e+00
1.1880774e+01 1.8654365e+00 1.6057357e+00
1.1804467e+01 1.7279861e+00 1.5069170e+00
1.1721750e+01 1.5917234e+00 1.4104294e+00
1.1721750e+01 1.5917234e+00 1.4104294e+00
1.1630576e+01 1.4578713e+00 1.3181530e+00
1.1536361e+01 1.3250184e+00 1.2278990e+00
1.1439105e+01 1.1931647e+00 1.1396675e+00
1.1338809e+01 1.0623103e+00 1.0534584e+00
1.1235472e+01 9.3245506e-01 9.6927165e-01
1.1129094e+01 8.0359907e-01 8.8710736e-01
1.1129094e+01 8.0359907e-01 8.8710736e-01
1.1023541e+01 6.7239374e-01 8.0595728e-01
1.0917559e+01 5.4138418e-01 7.2537466e-01
1.0811150e+01 4.1057038e-01 6.4535950e-01
1.0704312e+01 2.7995236e-01 5.6591179e-01
1.0597046e+01 1.4953009e-01 4.8703153e-01
1.0489352e+01 1.9303600e-02 4.0871873e-01
3.1955500e+00 6.1335221e+00 1.1747293e+01
3.1557020e+00 6.0872598e+00 1.1565833e+01
3.1154986e+00 6.0364719e+00 1.1385883e+01
3.0749398e+00 5.9811585e+00 1.1207445e+01
3.0340257e+00 5.9213196e+00 1.1030517e+01
2.9927561e+00 5.8569552e+00 1.0855100e+01
2.9511312e+00 5.7880653e+00 1.0681195e+01
2.9511312e+00 5.7880653e+00 1.0681195e+01
2.9202340e+00 5.7331091e+00 1.0500134e+01
2.8956685e+00 5.6759707e+00 1.0319350e+01
2.8774346e+00 5.6166501e+00 1.0138843e+01
2.8655323e+00 5.5551472e+00 9.9586125e+00
2.8599616e+00 5.4914622e+00 9.7786593e+00
2.8607226e+00 5.4255949e+00 9.5989832e+00
2.8607226e+00 5.4255949e+00 9.5989832e+00
2.8727423e+00 5.3542156e+00 9.4210115e+00
2.8935873e+00 5.2793693e+00 9.2467217e+00
2.9232576e+00 5.2010560e+00 9.0761140e+00
2.9617532e+00 5.1192755e+00 8.9091882e+00
3.0090740e+00 5.0340280e+00 8.7459444e+00
3.0652202e+00 4.9453135e+00 8.5863825e+00
3.0652202e+00 4.9453135e+00 8.5863825e+00
3.1381162e+00 4.8513576e+00 8.4354995e+00
3.2219967e+00 4.7555398e+00 8.2947611e+00
3.3168616e+00 4.6578603e+00 8.1641672e+00
3.4227110e+00 4.5583189e+00 8.0437177e+00
3.5395449e+00 4.4569157e+00 7.9334128e+00
3.6673633e+00 4.3536507e+00 7.8332524e+00
3.6673633e+00 4.3536507e+00 7.8332524e+00
3.7935321e+00 4.2511552e+00 7.7348866e+00
3.9202414e+00 4.1478344e+00 7.6382736e+00
4.0474912e+00 4.0436884e+00 7.5434135e+00
4.1752815e+00 3.9387170e+00 7.4503061e+00
4.3036123e+00 3.8329204e+00 7.3589517e+00
4.4324835e+00 3.7262986e+00 7.2693500e+00
4.4324835e+00 3.7262986e+00 7.2693500e+00
4.5631567e+00 3.6173081e+00 7.1842666e+00
4.6900200e+00 3.5057111e+00 7.0973451e+00
4.8130732e+00 3.3915077e+00 7.0085856e+00
4.9323165e+00 3.2746978e+00 6.9179880e+00
5.0477497e+00 3.1552814e+00 6.8255523e+00
5.1593729e+00 3.0332585e+00 6.7312786e+00
5.1593729e+00 3.0332585e+00 6.7312786e+00
5.2640882e+00 2.9087238e+00 6.6306712e+00
5.3583662e+00 2.7821364e+00 6.5248257e+00
5.4422068e+00 2.6534962e+00 6.4137421e+00
5.5156099e+00 2.5228033e+00 6.2974204e+00
5.5785758e+00 2.3900576e+00 6.1758606e+00
5.6311042e+00 2.2552592e+00 6.0490627e+00
5.6311042e+00 2.2552592e+00 6.0490627e+00
5.6651877e+00 2.1194643e+00 5.9166155e+00
5.6874152e+00 1.9847641e+00 5.7826236e+00
5.6977868e+00 1.8511585e+00 5.6470869e+00
5.6963024e+00 1.7186477e+00 5.5100053e+00
5.6829620e+00 1.5872315e+00 5.3713790e+00
5.6577656e+00 1.4569100e+00 5.2312080e+00
5.6577656e+00 1.4569100e+00 5.2312080e+00
5.6251820e+00 1.3310704e+00 5.0891090e+00
5.5874785e+00 1.2070197e+00 4.9470511e+00
5.5446550e+00 1.0847581e+00 4.8050343e+00
5.4967117e+00 9.6428547e-01 4.6630585e+00
5.4436485e+00 8.4560182e-01 4.5211238e+00
5.3854654e+00 7.2870716e-01 4.3792301e+00
5.3854654e+00 7.2870716e-01 4.3792301e+00
5.3257270e+00 6.0830571e-01 4.2413421e+00
5.2649292e+00 4.8783290e-01 4.1038517e+00
5.2030718e+00 3.6728874e-01 3.9667590e+00
5.1401549e+00 2.4667322e-01 3.8300640e+00
5.0761784e+00 1.2598635e-01 3.6937666e+00
5.0111425e+00 5.2281200e-03 3.5578669e+00
1.9746800e+00 5.9432584e+00 1.3865534e+01
2.0486441e+00 6.0516878e+00 1.3719527e+01
2.1346245e+00 6.1585451e+00 1.3583103e+01
2.2326211e+00 6.2638302e+00 1.3456262e+01
2.3426339e+00 6.3675432e+00 1.3339002e+01
2.4646630e+00 6.4696841e+00 1.3231325e+01
2.5987082e+00 6.5702529e+00 1.3133230e+01
2.5987082e+00 6.5702529e+00 1.3133230e+01
2.7639730e+00 6.6551201e+00 1.3075430e+01
2.9350336e+00 6.7292319e+00 1.3030622e+01
3.1118900e+00 6.7925884e+00 1.2998807e+01
3.2945422e+00 6.8451894e+00 1.2979983e+01
3.4829902e+00 6.8870351e+00 1.2974151e+01
3.6772340e+00 6.9181254e+00 1.2981311e+01
3.6772340e+00 6.9181254e+00 1.2981311e+01
3.8723313e+00 6.9418710e+00 1.2988727e+01
4.0634249e+00 6.9652165e+00 1.2978318e+01
4.2505148e+00 6.9881619e+00 1.2950081e+01
4.4336010e+00 7.0107073e+00 1.2904019e+01
4.6126836e+00 7.0328526e+00 1.2840130e+01
4.7877625e+00 7.0545978e+00 1.2758414e+01
4.7877625e+00 7.0545978e+00 1.2758414e+01
4.9343137e+00 7.0810287e+00 1.2633202e+01
5.0692818e+00 7.1046877e+00 1.2498091e+01
5.1926667e+00 7.1255749e+00 1.2353081e+01
5.3044684e+00 7.1436903e+00 1.2198172e+01
[...]
POINT_DATA 4361
VECTORS U float
2.1964200e+00 7.0875700e-01 -8.6015100e-03
2.2149700e+00 6.9210267e-01 1.3803167e-03
2.2325000e+00 6.7383033e-01 1.0061520e-02
2.2490100e+00 6.5394000e-01 1.7442100e-02
2.2645000e+00 6.3243167e-01 2.3522057e-02
2.2789700e+00 6.0930533e-01 2.8301390e-02
2.2924200e+00 5.8456100e-01 3.1780100e-02
2.2924200e+00 5.8456100e-01 3.1780100e-02
2.3028533e+00 5.6619244e-01 3.4846500e-02
2.3120367e+00 5.4653144e-01 3.5590033e-02
2.3199700e+00 5.2557800e-01 3.4010700e-02
2.3266533e+00 5.0333211e-01 3.0108500e-02
2.3320867e+00 4.7979378e-01 2.3883433e-02
2.3362700e+00 4.5496300e-01 1.5335500e-02
2.3362700e+00 4.5496300e-01 1.5335500e-02
2.3438678e+00 4.2638700e-01 1.1141422e-02
2.3506344e+00 3.9952400e-01 9.4176889e-03
2.3565700e+00 3.7437400e-01 1.0164300e-02
2.3616744e+00 3.5093700e-01 1.3381256e-02
2.3659478e+00 3.2921300e-01 1.9068556e-02
2.3693900e+00 3.0920200e-01 2.7226200e-02
2.3693900e+00 3.0920200e-01 2.7226200e-02
2.3722544e+00 2.8967244e-01 2.8206478e-02
2.3746878e+00 2.7154211e-01 2.9116311e-02
2.3766900e+00 2.5481100e-01 2.9955700e-02
2.3782611e+00 2.3947911e-01 3.0724644e-02
2.3794011e+00 2.2554644e-01 3.1423144e-02
2.3801100e+00 2.1301300e-01 3.2051200e-02
2.3801100e+00 2.1301300e-01 3.2051200e-02
2.3801622e+00 2.0115944e-01 3.4463611e-02
2.3801356e+00 1.9008744e-01 3.6698711e-02
2.3800300e+00 1.7979700e-01 3.8756500e-02
2.3798456e+00 1.7028811e-01 4.0636978e-02
2.3795822e+00 1.6156078e-01 4.2340144e-02
2.3792400e+00 1.5361500e-01 4.3866000e-02
2.3792400e+00 1.5361500e-01 4.3866000e-02
2.3788944e+00 1.4563800e-01 4.5439778e-02
2.3782911e+00 1.3875000e-01 4.5839078e-02
2.3774300e+00 1.3295100e-01 4.5063900e-02
2.3763111e+00 1.2824100e-01 4.3114244e-02
2.3749344e+00 1.2462000e-01 3.9990111e-02
2.3733000e+00 1.2208800e-01 3.5691500e-02
2.3733000e+00 1.2208800e-01 3.5691500e-02
2.3717878e+00 1.2045133e-01 3.2131718e-02
2.3685411e+00 1.2167733e-01 2.7097018e-02
2.3635600e+00 1.2576600e-01 2.0587400e-02
2.3568444e+00 1.3271733e-01 1.2602864e-02
2.3483944e+00 1.4253133e-01 3.1434111e-03
2.3382100e+00 1.5520800e-01 -7.7909600e-03
2.3382100e+00 1.5520800e-01 -7.7909600e-03
2.3204667e+00 1.8876300e-01 -2.2828567e-02
2.3042200e+00 2.1973967e-01 -3.6667613e-02
2.2894700e+00 2.4813800e-01 -4.9308100e-02
2.2762167e+00 2.7395800e-01 -6.0750027e-02
2.2644600e+00 2.9719967e-01 -7.0993393e-02
2.2542000e+00 3.1786300e-01 -8.0038200e-02
2.2542000e+00 3.1786300e-01 -8.0038200e-02
2.2426044e+00 3.0762311e-01 -6.8823211e-02
2.2296778e+00 2.9433511e-01 -5.4530844e-02
2.2154200e+00 2.7799900e-01 -3.7161100e-02
2.1998311e+00 2.5861478e-01 -1.6713978e-02
2.1829111e+00 2.3618244e-01 6.8105222e-03
2.1646600e+00 2.1070200e-01 3.3412400e-02
2.1646600e+00 2.1070200e-01 3.3412400e-02
2.1432922e+00 2.0356100e-01 5.0432556e-02
2.1207922e+00 1.9687233e-01 6.7130022e-02
2.0971600e+00 1.9063600e-01 8.3504800e-02
2.0723956e+00 1.8485200e-01 9.9556889e-02
2.0464989e+00 1.7952033e-01 1.1528629e-01
2.0194700e+00 1.7464100e-01 1.3069300e-01
2.0194700e+00 1.7464100e-01 1.3069300e-01
1.9916956e+00 1.7367344e-01 1.4291222e-01
1.9622989e+00 1.7249811e-01 1.5403722e-01
1.9312800e+00 1.7111500e-01 1.6406800e-01
1.8986389e+00 1.6952411e-01 1.7300456e-01
1.8643756e+00 1.6772544e-01 1.8084689e-01
1.8284900e+00 1.6571900e-01 1.8759500e-01
1.8284900e+00 1.6571900e-01 1.8759500e-01
1.7932744e+00 1.6317533e-01 1.9254233e-01
1.7577878e+00 1.6009400e-01 1.9547433e-01
1.7220300e+00 1.5647500e-01 1.9639100e-01
1.6860011e+00 1.5231833e-01 1.9529233e-01
1.6497011e+00 1.4762400e-01 1.9217833e-01
1.6131300e+00 1.4239200e-01 1.8704900e-01
1.6131300e+00 1.4239200e-01 1.8704900e-01
1.5771356e+00 1.3615237e-01 1.8059800e-01
1.5422389e+00 1.2883503e-01 1.7399200e-01
1.5084400e+00 1.2044000e-01 1.6723100e-01
1.4757389e+00 1.1096727e-01 1.6031500e-01
1.4441356e+00 1.0041683e-01 1.5324400e-01
1.4136300e+00 8.8788700e-02 1.4601800e-01
1.4136300e+00 8.8788700e-02 1.4601800e-01
1.3829644e+00 7.7055389e-02 1.3826824e-01
1.3523678e+00 6.5503556e-02 1.2999424e-01
1.3218400e+00 5.4133200e-02 1.2119600e-01
1.2913811e+00 4.2944322e-02 1.1187351e-01
1.2609911e+00 3.1936922e-02 1.0202678e-01
1.2306700e+00 2.1111000e-02 9.1655800e-02
1.2306700e+00 2.1111000e-02 9.1655800e-02
1.1991022e+00 9.8050444e-03 8.1328944e-02
1.1661122e+00 -2.1202556e-03 7.1166544e-02
1.1317000e+00 -1.4664900e-02 6.1168600e-02
1.0958656e+00 -2.7828889e-02 5.1335111e-02
1.0586089e+00 -4.1612222e-02 4.1666078e-02
1.0199300e+00 -5.6014900e-02 3.2161500e-02
1.0199300e+00 -5.6014900e-02 3.2161500e-02
9.7924144e-01 -7.0486667e-02 2.3229517e-02
9.3678211e-01 -8.3585667e-02 1.4582900e-02
8.9255200e-01 -9.5311900e-02 6.2216500e-03
8.4655111e-01 -1.0566537e-01 -1.8542333e-03
7.9877944e-01 -1.1464607e-01 -9.6447500e-03
7.4923700e-01 -1.2225400e-01 -1.7149900e-02
7.4923700e-01 -1.2225400e-01 -1.7149900e-02
6.9982456e-01 -1.2887656e-01 -2.2152633e-02
6.5123289e-01 -1.3354456e-01 -2.5825500e-02
6.0346200e-01 -1.3625800e-01 -2.8168500e-02
5.5651189e-01 -1.3701689e-01 -2.9181633e-02
5.1038256e-01 -1.3582122e-01 -2.8864900e-02
4.6507400e-01 -1.3267100e-01 -2.7218300e-02
4.6507400e-01 -1.3267100e-01 -2.7218300e-02
4.2278533e-01 -1.2496286e-01 -2.7765211e-02
3.8338967e-01 -1.1657552e-01 -2.8076878e-02
3.4688700e-01 -1.0750900e-01 -2.8153300e-02
3.1327733e-01 -9.7763289e-02 -2.7994478e-02
2.8256067e-01 -8.7338389e-02 -2.7600411e-02
2.5473700e-01 -7.6234300e-02 -2.6971100e-02
2.5473700e-01 -7.6234300e-02 -2.6971100e-02
2.2553111e-01 -6.4710556e-02 -2.4670888e-02
1.9805344e-01 -5.3548222e-02 -2.2081254e-02
1.7230400e-01 -4.2747300e-02 -1.9202200e-02
1.4828278e-01 -3.2307789e-02 -1.6033724e-02
1.2598978e-01 -2.2229689e-02 -1.2575828e-02
1.0542500e-01 -1.2513000e-02 -8.8285100e-03
1.0542500e-01 -1.2513000e-02 -8.8285100e-03
8.8200211e-02 -6.3439111e-03 -5.2736556e-03
7.1889744e-02 -5.2135111e-04 -1.7361822e-03
5.6493600e-02 4.9546800e-03 1.7839100e-03
4.2011778e-02 1.0084182e-02 5.2866211e-03
2.8444278e-02 1.4867156e-02 8.7719511e-03
1.5791100e-02 1.9303600e-02 1.2239900e-02
1.9774300e+00 9.2201000e-01 1.0273800e-01
1.9601689e+00 9.1197889e-01 1.0879844e-01
1.9402522e+00 8.9800856e-01 1.1645044e-01
1.9176800e+00 8.8009900e-01 1.2569400e-01
1.8924522e+00 8.5825022e-01 1.3652911e-01
1.8645689e+00 8.3246222e-01 1.4895578e-01
1.8340300e+00 8.0273500e-01 1.6297400e-01
1.8340300e+00 8.0273500e-01 1.6297400e-01
1.8097267e+00 7.8814600e-01 1.7044044e-01
1.7837933e+00 7.7322333e-01 1.7712878e-01
1.7562300e+00 7.5796700e-01 1.8303900e-01
1.7270367e+00 7.4237700e-01 1.8817111e-01
1.6962133e+00 7.2645333e-01 1.9252511e-01
1.6637600e+00 7.1019600e-01 1.9610100e-01
1.6637600e+00 7.1019600e-01 1.9610100e-01
1.6298200e+00 6.9122689e-01 1.9893344e-01
1.5930700e+00 6.7098356e-01 1.9940044e-01
1.5535100e+00 6.4946600e-01 1.9750200e-01
1.5111400e+00 6.2667422e-01 1.9323811e-01
1.4659600e+00 6.0260822e-01 1.8660878e-01
1.4179700e+00 5.7726800e-01 1.7761400e-01
1.4179700e+00 5.7726800e-01 1.7761400e-01
1.3758367e+00 5.4824367e-01 1.6732111e-01
1.3385767e+00 5.1865600e-01 1.6002711e-01
1.3061900e+00 4.8850500e-01 1.5573200e-01
1.2786767e+00 4.5779067e-01 1.5443578e-01
1.2560367e+00 4.2651300e-01 1.5613844e-01
1.2382700e+00 3.9467200e-01 1.6084000e-01
1.2382700e+00 3.9467200e-01 1.6084000e-01
1.2165267e+00 3.6459156e-01 1.6184289e-01
1.1942333e+00 3.3533356e-01 1.6144589e-01
1.1713900e+00 3.0689800e-01 1.5964900e-01
1.1479967e+00 2.7928489e-01 1.5645222e-01
1.1240533e+00 2.5249422e-01 1.5185556e-01
1.0995600e+00 2.2652600e-01 1.4585900e-01
1.0995600e+00 2.2652600e-01 1.4585900e-01
1.0773742e+00 2.0023597e-01 1.4329989e-01
1.0535909e+00 1.7423430e-01 1.3965689e-01
1.0282100e+00 1.4852100e-01 1.3493000e-01
1.0012316e+00 1.2309607e-01 1.2911922e-01
9.7265556e-01 9.7959500e-02 1.2222456e-01
9.4248200e-01 7.3111300e-02 1.1424600e-01
9.4248200e-01 7.3111300e-02 1.1424600e-01
9.0895056e-01 4.9711400e-02 1.0281261e-01
8.7240622e-01 2.8277633e-02 9.0479078e-02
8.3284900e-01 8.8100000e-03 7.7245400e-02
7.9027889e-01 -8.6915000e-03 6.3111578e-02
7.4469589e-01 -2.4226867e-02 4.8077611e-02
6.9610000e-01 -3.7796100e-02 3.2143500e-02
6.9610000e-01 -3.7796100e-02 3.2143500e-02
6.4147678e-01 -4.7746844e-02 1.7278056e-02
5.8755911e-01 -5.5045678e-02 4.9351222e-03
5.3434700e-01 -5.9692600e-02 -4.8853000e-03
4.8184044e-01 -6.1687611e-02 -1.2183211e-02
4.3003944e-01 -6.1030711e-02 -1.6958611e-02
3.7894400e-01 -5.7721900e-02 -1.9211500e-02
3.7894400e-01 -5.7721900e-02 -1.9211500e-02
3.3355500e-01 -5.1321133e-02 -2.1688933e-02
2.9116967e-01 -4.4324300e-02 -2.3416433e-02
2.5178800e-01 -3.6731400e-02 -2.4394000e-02
2.1541000e-01 -2.8542433e-02 -2.4621633e-02
1.8203567e-01 -1.9757400e-02 -2.4099333e-02
1.5166500e-01 -1.0376300e-02 -2.2827100e-02
1.5166500e-01 -1.0376300e-02 -2.2827100e-02
1.2414881e-01 -6.0403906e-03 -1.7976339e-02
9.7864278e-02 -2.3985502e-03 -1.2789316e-02
7.2811400e-02 5.4922100e-04 -7.2660300e-03
4.8990178e-02 2.8029231e-03 -1.4064822e-03
2.6400611e-02 4.3625561e-03 4.7893278e-03
5.0427000e-03 5.2281200e-03 1.1321400e-02
1.9746800e+00 9.7355400e-01 -5.4249200e-02
1.9979467e+00 9.7890922e-01 -4.0868433e-02
2.0198667e+00 9.8125689e-01 -2.8048700e-02
2.0404400e+00 9.8059700e-01 -1.5790000e-02
2.0596667e+00 9.7692956e-01 -4.0923333e-03
2.0775467e+00 9.7025456e-01 7.0443000e-03
2.0940800e+00 9.6057200e-01 1.7619900e-02
2.0940800e+00 9.6057200e-01 1.7619900e-02
2.1075511e+00 9.4097522e-01 2.3880968e-02
2.1197311e+00 9.1941156e-01 2.7054701e-02
2.1306200e+00 8.9588100e-01 2.7141100e-02
2.1402178e+00 8.7038356e-01 2.4140164e-02
2.1485244e+00 8.4291922e-01 1.8051894e-02
2.1555400e+00 8.1348800e-01 8.8762900e-03
2.1555400e+00 8.1348800e-01 8.8762900e-03
2.1618556e+00 7.8147144e-01 9.2470556e-04
2.1667989e+00 7.5391711e-01 -6.0003244e-03
2.1703700e+00 7.3082500e-01 -1.1898800e-02
2.1725689e+00 7.1219511e-01 -1.6770721e-02
2.1733956e+00 6.9802744e-01 -2.0616088e-02
2.1728500e+00 6.8832200e-01 -2.3434900e-02
2.1728500e+00 6.8832200e-01 -2.3434900e-02
2.1735589e+00 6.9130089e-01 -2.2338777e-02
2.1755556e+00 6.9445056e-01 -2.0692210e-02
2.1788400e+00 6.9777100e-01 -1.8495200e-02
2.1834122e+00 7.0126222e-01 -1.5747747e-02
2.1892722e+00 7.0492422e-01 -1.2449850e-02
2.1964200e+00 7.0875700e-01 -8.6015100e-03
1.9292300e+00 9.5554000e-01 2.2384500e-02
1.9406522e+00 9.5545000e-01 4.2602611e-02
1.9507189e+00 9.5316067e-01 6.0090378e-02
1.9594300e+00 9.4867200e-01 7.4847800e-02
1.9667856e+00 9.4198400e-01 8.6874878e-02
1.9727856e+00 9.3309667e-01 9.6171611e-02
1.9774300e+00 9.2201000e-01 1.0273800e-01
2.2542000e+00 3.1786300e-01 -8.0038200e-02
2.2296900e+00 2.8209367e-01 -7.7186256e-02
2.2041967e+00 2.4750067e-01 -7.3046656e-02
2.1777200e+00 2.1408400e-01 -6.7619400e-02
2.1502600e+00 1.8184367e-01 -6.0904489e-02
2.1218167e+00 1.5077967e-01 -5.2901922e-02
2.0923900e+00 1.2089200e-01 -4.3611700e-02
2.0923900e+00 1.2089200e-01 -4.3611700e-02
2.0760400e+00 1.0275334e-01 -3.9018311e-02
2.0577300e+00 8.6632511e-02 -3.2327678e-02
2.0374600e+00 7.2529500e-02 -2.3539800e-02
2.0152300e+00 6.0444311e-02 -1.2654678e-02
1.9910400e+00 5.0376944e-02 3.2768889e-04
1.9648900e+00 4.2327400e-02 1.5407300e-02
1.9648900e+00 4.2327400e-02 1.5407300e-02
1.9346878e+00 3.2756813e-02 2.9110556e-02
1.9038178e+00 2.4164347e-02 4.1279689e-02
1.8722800e+00 1.6550000e-02 5.1914700e-02
1.8400744e+00 9.9137731e-03 6.1015589e-02
1.8072011e+00 4.2556661e-03 6.8582356e-02
1.7736600e+00 -4.2432100e-04 7.4615000e-02
1.7736600e+00 -4.2432100e-04 7.4615000e-02
1.7313267e+00 -4.7697672e-03 7.8054711e-02
1.6885667e+00 -8.3812269e-03 7.9388678e-02
1.6453800e+00 -1.1258700e-02 7.8616900e-02
1.6017667e+00 -1.3402187e-02 7.5739378e-02
1.5577267e+00 -1.4811687e-02 7.0756111e-02
1.5132600e+00 -1.5487200e-02 6.3667100e-02
1.5132600e+00 -1.5487200e-02 6.3667100e-02
1.4756433e+00 -1.3403504e-02 5.8274244e-02
1.4388700e+00 -1.0511164e-02 5.2537611e-02
1.4029400e+00 -6.8101800e-03 4.6457200e-02
1.3678533e+00 -2.3005511e-03 4.0033011e-02
1.3336100e+00 3.0177222e-03 3.3265044e-02
1.3002100e+00 9.1446400e-03 2.6153300e-02
1.3002100e+00 9.1446400e-03 2.6153300e-02
1.2663978e+00 1.3989622e-02 1.7568118e-02
1.2323344e+00 1.9297142e-02 8.9386551e-03
1.1980200e+00 2.5067200e-02 2.6491200e-04
1.1634544e+00 3.1299796e-02 -8.4531116e-03
1.1286378e+00 3.7994929e-02 -1.7215416e-02
1.0935700e+00 4.5152600e-02 -2.6022000e-02
1.0935700e+00 4.5152600e-02 -2.6022000e-02
1.0610924e+00 5.0915500e-02 -3.4191944e-02
1.0264168e+00 5.7877233e-02 -4.1321344e-02
9.8954300e-01 6.6037800e-02 -4.7410200e-02
9.5047111e-01 7.5397200e-02 -5.2458511e-02
9.0920111e-01 8.5955433e-02 -5.6466278e-02
8.6573300e-01 9.7712500e-02 -5.9433500e-02
8.6573300e-01 9.7712500e-02 -5.9433500e-02
8.1624778e-01 1.1273783e-01 -6.0384578e-02
7.6747811e-01 1.2507267e-01 -6.0512011e-02
7.1942400e-01 1.3471700e-01 -5.9815800e-02
6.7208544e-01 1.4167083e-01 -5.8295944e-02
6.2546244e-01 1.4593417e-01 -5.5952444e-02
5.7955500e-01 1.4750700e-01 -5.2785300e-02
5.7955500e-01 1.4750700e-01 -5.2785300e-02
5.2981089e-01 1.4617500e-01 -4.9031789e-02
4.8261856e-01 1.4302033e-01 -4.4501522e-02
4.3797800e-01 1.3804300e-01 -3.9194500e-02
3.9588922e-01 1.3124300e-01 -3.3110722e-02
3.5635222e-01 1.2262033e-01 -2.6250189e-02
3.1936700e-01 1.1217500e-01 -1.8612900e-02
3.1936700e-01 1.1217500e-01 -1.8612900e-02
2.8109256e-01 1.0192561e-01 -6.0876556e-03
2.4466256e-01 9.1224544e-02 5.4440444e-03
2.1007700e-01 8.0071800e-02 1.5982200e-02
1.7733589e-01 6.8467378e-02 2.5526811e-02
1.4643922e-01 5.6411278e-02 3.4077878e-02
1.1738700e-01 4.3903500e-02 4.1635400e-02
1.1738700e-01 4.3903500e-02 4.1635400e-02
1.0293823e-01 3.7593056e-02 3.5518616e-02
8.7586233e-02 2.9895056e-02 2.9119483e-02
7.1331000e-02 2.0809500e-02 2.2438000e-02
5.4172533e-02 1.0336389e-02 1.5474168e-02
3.6110833e-02 -1.5242778e-03 8.2279867e-03
1.7145900e-02 -1.4772500e-02 6.9945600e-04
7.0125400e+00 4.5735800e-01 1.2844400e-01
6.9981378e+00 4.1875433e-01 1.3982056e-01
6.9828311e+00 3.8167633e-01 1.5092889e-01
6.9666200e+00 3.4612400e-01 1.6176900e-01
6.9495044e+00 3.1209733e-01 1.7234089e-01
6.9314844e+00 2.7959633e-01 1.8264456e-01
6.9125600e+00 2.4862100e-01 1.9268000e-01
6.9125600e+00 2.4862100e-01 1.9268000e-01
6.8955022e+00 2.2712778e-01 2.0024811e-01
6.8776989e+00 2.1123678e-01 2.0710911e-01
6.8591500e+00 2.0094800e-01 2.1326300e-01
6.8398556e+00 1.9626144e-01 2.1870978e-01
6.8198156e+00 1.9717711e-01 2.2344944e-01
6.7990300e+00 2.0369500e-01 2.2748200e-01
6.7990300e+00 2.0369500e-01 2.2748200e-01
6.7790522e+00 2.0920044e-01 2.3012433e-01
6.7573622e+00 2.1554044e-01 2.3290067e-01
6.7339600e+00 2.2271500e-01 2.3581100e-01
6.7088456e+00 2.3072411e-01 2.3885533e-01
6.6820189e+00 2.3956778e-01 2.4203367e-01
6.6534800e+00 2.4924600e-01 2.4534600e-01
6.6534800e+00 2.4924600e-01 2.4534600e-01
6.6149656e+00 2.6122567e-01 2.5214678e-01
6.5781056e+00 2.6726967e-01 2.5873478e-01
6.5429000e+00 2.6737800e-01 2.6511000e-01
6.5093489e+00 2.6155067e-01 2.7127244e-01
6.4774522e+00 2.4978767e-01 2.7722211e-01
6.4472100e+00 2.3208900e-01 2.8295900e-01
6.4472100e+00 2.3208900e-01 2.8295900e-01
6.4230200e+00 2.1125330e-01 2.8300900e-01
6.4001033e+00 1.8993497e-01 2.8066167e-01
6.3784600e+00 1.6813400e-01 2.7591700e-01
6.3580900e+00 1.4585040e-01 2.6877500e-01
6.3389933e+00 1.2308417e-01 2.5923567e-01
6.3211700e+00 9.9835300e-02 2.4729900e-01
6.3211700e+00 9.9835300e-02 2.4729900e-01
6.2946611e+00 1.2298417e-01 2.4968533e-01
6.2656444e+00 1.4492273e-01 2.5077567e-01
6.2341200e+00 1.6565100e-01 2.5057000e-01
6.2000878e+00 1.8516897e-01 2.4906833e-01
6.1635478e+00 2.0347663e-01 2.4627067e-01
6.1245000e+00 2.2057400e-01 2.4217700e-01
6.1245000e+00 2.2057400e-01 2.4217700e-01
6.0860656e+00 2.3219778e-01 2.3168344e-01
6.0498422e+00 2.3891578e-01 2.1963411e-01
6.0158300e+00 2.4072800e-01 2.0602900e-01
5.9840289e+00 2.3763444e-01 1.9086811e-01
5.9544389e+00 2.2963511e-01 1.7415144e-01
5.9270600e+00 2.1673000e-01 1.5587900e-01
5.9270600e+00 2.1673000e-01 1.5587900e-01
5.9025622e+00 1.9795664e-01 1.4378294e-01
5.8760456e+00 1.7879731e-01 1.3084228e-01
5.8475100e+00 1.5925200e-01 1.1705700e-01
5.8169556e+00 1.3932071e-01 1.0242711e-01
5.7843822e+00 1.1900344e-01 8.6952611e-02
5.7497900e+00 9.8300200e-02 7.0633500e-02
5.7497900e+00 9.8300200e-02 7.0633500e-02
5.7077378e+00 7.9546611e-02 5.0343089e-02
5.6628844e+00 6.6330078e-02 3.2128322e-02
5.6152300e+00 5.8650600e-02 1.5989200e-02
5.5647744e+00 5.6508178e-02 1.9257222e-03
5.5115178e+00 5.9902811e-02 -1.0062111e-02
5.4554600e+00 6.8834500e-02 -1.9974300e-02
5.4554600e+00 6.8834500e-02 -1.9974300e-02
5.4011411e+00 8.7781833e-02 -2.3237622e-02
5.3517078e+00 1.0636933e-01 -2.5706656e-02
5.3071600e+00 1.2459700e-01 -2.7381400e-02
5.2674978e+00 1.4246483e-01 -2.8261856e-02
5.2327211e+00 1.5997283e-01 -2.8348022e-02
5.2028300e+00 1.7712100e-01 -2.7639900e-02
5.3068900e+00 2.2933600e-01 -6.1662800e-02
5.2963911e+00 2.1535378e-01 -5.8792789e-02
5.2831544e+00 2.0348344e-01 -5.4802589e-02
5.2671800e+00 1.9372500e-01 -4.9692200e-02
5.2484678e+00 1.8607844e-01 -4.3461622e-02
5.2270178e+00 1.8054378e-01 -3.6110856e-02
5.2028300e+00 1.7712100e-01 -2.7639900e-02
6.6779200e+00 4.9542800e-01 1.3826200e-01
6.6563022e+00 4.8017867e-01 1.2441818e-01
6.6343156e+00 4.6448067e-01 1.0959651e-01
6.6119600e+00 4.4833400e-01 9.3797000e-02
6.5892356e+00 4.3173867e-01 7.7019644e-02
6.5661422e+00 4.1469467e-01 5.9264444e-02
6.5426800e+00 3.9720200e-01 4.0531400e-02
6.5426800e+00 3.9720200e-01 4.0531400e-02
6.5193522e+00 3.7488633e-01 2.1155514e-02
6.4966122e+00 3.5376933e-01 6.6969844e-03
6.4744600e+00 3.3385100e-01 -2.8441900e-03
6.4528956e+00 3.1513133e-01 -7.4680089e-03
6.4319189e+00 2.9761033e-01 -7.1744722e-03
6.4115300e+00 2.8128800e-01 -1.9635800e-03
6.4115300e+00 2.8128800e-01 -1.9635800e-03
6.3814133e+00 2.7618144e-01 2.1057456e-02
6.3494367e+00 2.7319711e-01 4.4066716e-02
6.3156000e+00 2.7233500e-01 6.7064200e-02
6.2799033e+00 2.7359511e-01 9.0049909e-02
6.2423467e+00 2.7697744e-01 1.1302384e-01
6.2029300e+00 2.8248200e-01 1.3598600e-01
6.2029300e+00 2.8248200e-01 1.3598600e-01
6.1653189e+00 2.9042833e-01 1.5964489e-01
6.1259022e+00 2.9622933e-01 1.8298156e-01
6.0846800e+00 2.9988500e-01 2.0599600e-01
6.0416522e+00 3.0139533e-01 2.2868822e-01
5.9968189e+00 3.0076033e-01 2.5105822e-01
5.9501800e+00 2.9798000e-01 2.7310600e-01
5.9501800e+00 2.9798000e-01 2.7310600e-01
5.8984422e+00 2.7560000e-01 2.6376893e-01
5.8433056e+00 2.5786633e-01 2.4532127e-01
5.7847700e+00 2.4477900e-01 2.1776300e-01
5.7228356e+00 2.3633800e-01 1.8109413e-01
5.6575022e+00 2.3254333e-01 1.3531467e-01
5.5887700e+00 2.3339500e-01 8.0424600e-02
5.5887700e+00 2.3339500e-01 8.0424600e-02
5.5283456e+00 2.3735044e-01 4.0444367e-02
5.4732989e+00 2.3945311e-01 6.9837333e-03
5.4236300e+00 2.3970300e-01 -1.9957300e-02
5.3793389e+00 2.3810011e-01 -4.0378733e-02
5.3404256e+00 2.3464444e-01 -5.4280567e-02
5.3068900e+00 2.2933600e-01 -6.1662800e-02
3.9054600e+00 4.2059700e-01 -6.6522200e-02
3.9414778e+00 3.9002867e-01 -5.9238689e-02
3.9839844e+00 3.6059067e-01 -5.4874956e-02
4.0329800e+00 3.3228300e-01 -5.3431000e-02
4.0884644e+00 3.0510567e-01 -5.4906822e-02
4.1504378e+00 2.7905867e-01 -5.9302422e-02
4.2189000e+00 2.5414200e-01 -6.6617800e-02
4.2189000e+00 2.5414200e-01 -6.6617800e-02
4.2911278e+00 2.4948922e-01 -6.6894889e-02
4.3630844e+00 2.5132622e-01 -6.5287756e-02
4.4347700e+00 2.5965300e-01 -6.1796400e-02
4.5061844e+00 2.7446956e-01 -5.6420822e-02
4.5773278e+00 2.9577589e-01 -4.9161022e-02
4.6482000e+00 3.2357200e-01 -4.0017000e-02
4.6482000e+00 3.2357200e-01 -4.0017000e-02
4.7131011e+00 3.5190389e-01 -3.5980900e-02
4.7779244e+00 3.7383156e-01 -3.2906067e-02
4.8426700e+00 3.8935500e-01 -3.0792500e-02
4.9073378e+00 3.9847422e-01 -2.9640200e-02
4.9719278e+00 4.0118922e-01 -2.9449167e-02
5.0364400e+00 3.9750000e-01 -3.0219400e-02
5.0364400e+00 3.9750000e-01 -3.0219400e-02
5.0958844e+00 3.7327711e-01 -3.4454800e-02
5.1495811e+00 3.4753244e-01 -3.9092267e-02
5.1975300e+00 3.2026600e-01 -4.4131800e-02
5.2397311e+00 2.9147778e-01 -4.9573400e-02
5.2761844e+00 2.6116778e-01 -5.5417067e-02
5.3068900e+00 2.2933600e-01 -6.1662800e-02