# vtk DataFile Version 2.0
test
ASCII
DATASET POLYDATA
POINTS 4361 float
4.1266272e+00 6.7307625e+00 1.1860591e+01
4.2312897e+00 6.7961917e+00 1.1731470e+01
4.3382333e+00 6.8612899e+00 1.1604217e+01
4.4474580e+00 6.9260571e+00 1.1478834e+01
4.5589639e+00 6.9904932e+00 1.1355320e+01
4.6727508e+00 7.0545983e+00 1.1233675e+01
4.7888188e+00 7.1183724e+00 1.1113899e+01
4.7888188e+00 7.1183724e+00 1.1113899e+01
4.9096383e+00 7.1854089e+00 1.0998153e+01
5.0371375e+00 7.2513226e+00 1.0891653e+01
5.1713165e+00 7.3161135e+00 1.0794399e+01
5.3121751e+00 7.3797816e+00 1.0706392e+01
5.4597135e+00 7.4423268e+00 1.0627631e+01
5.6139316e+00 7.5037491e+00 1.0558116e+01
5.6139316e+00 7.5037491e+00 1.0558116e+01
5.7776164e+00 7.5612416e+00 1.0508608e+01
5.9435995e+00 7.6155912e+00 1.0472451e+01
6.1118810e+00 7.6667980e+00 1.0449644e+01
6.2824609e+00 7.7148620e+00 1.0440187e+01
6.4553393e+00 7.7597831e+00 1.0444082e+01
6.6305161e+00 7.8015614e+00 1.0461326e+01
6.6305161e+00 7.8015614e+00 1.0461326e+01
6.8041031e+00 7.8389168e+00 1.0484349e+01
6.9775078e+00 7.8734940e+00 1.0511169e+01
7.1507302e+00 7.9052930e+00 1.0541785e+01
7.3237703e+00 7.9343137e+00 1.0576198e+01
7.4966281e+00 7.9605562e+00 1.0614408e+01
7.6693036e+00 7.9840204e+00 1.0656415e+01
7.6693036e+00 7.9840204e+00 1.0656415e+01
7.8421456e+00 8.0051760e+00 1.0698857e+01
8.0159145e+00 8.0238992e+00 1.0737376e+01
8.1906102e+00 8.0401900e+00 1.0771971e+01
8.3662328e+00 8.0540483e+00 1.0802644e+01
8.5427821e+00 8.0654742e+00 1.0829394e+01
8.7202583e+00 8.0744676e+00 1.0852221e+01
8.7202583e+00 8.0744676e+00 1.0852221e+01
8.9005011e+00 8.0805301e+00 1.0866207e+01
9.0791178e+00 8.0840564e+00 1.0866547e+01
9.2561084e+00 8.0850466e+00 1.0853240e+01
9.4314729e+00 8.0835007e+00 1.0826287e+01
9.6052114e+00 8.0794187e+00 1.0785687e+01
9.7773238e+00 8.0728005e+00 1.0731441e+01
9.7773238e+00 8.0728005e+00 1.0731441e+01
9.9421698e+00 8.0635550e+00 1.0658757e+01
1.0099294e+01 8.0534145e+00 1.0574881e+01
1.0248695e+01 8.0423791e+00 1.0479814e+01
1.0390374e+01 8.0304488e+00 1.0373556e+01
1.0524331e+01 8.0176236e+00 1.0256106e+01
1.0650566e+01 8.0039034e+00 1.0127465e+01
1.0650566e+01 8.0039034e+00 1.0127465e+01
1.0766921e+01 7.9968850e+00 9.9916849e+00
1.0881123e+01 7.9887438e+00 9.8542523e+00
1.0993173e+01 7.9794797e+00 9.7151668e+00
1.1103069e+01 7.9690928e+00 9.5744286e+00
1.1210812e+01 7.9575830e+00 9.4320375e+00
1.1316403e+01 7.9449504e+00 9.2879937e+00
1.1316403e+01 7.9449504e+00 9.2879937e+00
1.1216709e+01 7.8778107e+00 9.1486321e+00
1.1117741e+01 7.8090020e+00 9.0096185e+00
1.1019496e+01 7.7385243e+00 8.8709528e+00
1.0921976e+01 7.6663776e+00 8.7326351e+00
1.0825181e+01 7.5925619e+00 8.5946653e+00
1.0729110e+01 7.5170772e+00 8.4570433e+00
1.0729110e+01 7.5170772e+00 8.4570433e+00
1.0634738e+01 7.4473790e+00 8.3149636e+00
1.0544699e+01 7.3765224e+00 8.1710324e+00
1.0458994e+01 7.3045076e+00 8.0252500e+00
1.0377622e+01 7.2313345e+00 7.8776163e+00
1.0300583e+01 7.1570030e+00 7.7281312e+00
1.0227878e+01 7.0815133e+00 7.5767949e+00
1.0227878e+01 7.0815133e+00 7.5767949e+00
1.0162253e+01 7.0045681e+00 7.4221986e+00
1.0105261e+01 6.9255025e+00 7.2663575e+00
1.0056901e+01 6.8443165e+00 7.1092715e+00
1.0017172e+01 6.7610100e+00 6.9509406e+00
9.9860766e+00 6.6755830e+00 6.7913649e+00
9.9636131e+00 6.5880357e+00 6.6305443e+00
9.9636131e+00 6.5880357e+00 6.6305443e+00
9.9531259e+00 6.4983777e+00 6.4696311e+00
9.9530782e+00 6.4074370e+00 6.3104620e+00
9.9634698e+00 6.3152137e+00 6.1530370e+00
9.9843008e+00 6.2217077e+00 5.9973562e+00
1.0015571e+01 6.1269190e+00 5.8434194e+00
1.0057281e+01 6.0308477e+00 5.6912268e+00
1.0057281e+01 6.0308477e+00 5.6912268e+00
1.0107249e+01 5.9342973e+00 5.5428631e+00
1.0162936e+01 5.8370090e+00 5.3976471e+00
1.0224342e+01 5.7389826e+00 5.2555787e+00
1.0291467e+01 5.6402181e+00 5.1166580e+00
1.0364311e+01 5.5407156e+00 4.9808848e+00
1.0442874e+01 5.4404750e+00 4.8482594e+00
1.0442874e+01 5.4404750e+00 4.8482594e+00
1.0524428e+01 5.3400647e+00 4.7181400e+00
1.0607554e+01 5.2386560e+00 4.5899050e+00
1.0692251e+01 5.1362489e+00 4.4635545e+00
1.0778519e+01 5.0328433e+00 4.3390885e+00
1.0866359e+01 4.9284393e+00 4.2165068e+00
1.0955771e+01 4.8230369e+00 4.0958096e+00
1.0955771e+01 4.8230369e+00 4.0958096e+00
1.1044725e+01 4.7156173e+00 3.9766672e+00
1.1131679e+01 4.6058907e+00 3.8582011e+00
1.1216631e+01 4.4938571e+00 3.7404115e+00
1.1299583e+01 4.3795164e+00 3.6232984e+00
1.1380535e+01 4.2628687e+00 3.5068616e+00
1.1459485e+01 4.1439141e+00 3.3911013e+00
1.1459485e+01 4.1439141e+00 3.3911013e+00
1.1534521e+01 4.0221098e+00 3.2751332e+00
1.1603157e+01 3.8973218e+00 3.1592401e+00
1.1665393e+01 3.7695501e+00 3.0434221e+00
1.1721228e+01 3.6387947e+00 2.9276790e+00
1.1770663e+01 3.5050556e+00 2.8120110e+00
1.1813697e+01 3.3683328e+00 2.6964180e+00
1.1813697e+01 3.3683328e+00 2.6964180e+00
1.1848607e+01 3.2276589e+00 2.5817374e+00
1.1873441e+01 3.0853519e+00 2.4682480e+00
1.1888199e+01 2.9414118e+00 2.3559495e+00
1.1892881e+01 2.7958386e+00 2.2448422e+00
1.1887487e+01 2.6486324e+00 2.1349259e+00
1.1872018e+01 2.4997931e+00 2.0262006e+00
1.1872018e+01 2.4997931e+00 2.0262006e+00
1.1844551e+01 2.3523289e+00 1.9183396e+00
1.1808866e+01 2.2058770e+00 1.8127942e+00
1.1764964e+01 2.0604374e+00 1.7095644e+00
1.1712843e+01 1.9160100e+00 1.6086503e+00
1.1652505e+01 1.7725949e+00 1.5100518e+00
1.1583950e+01 1.6301921e+00 1.4137689e+00
1.1583950e+01 1.6301921e+00 1.4137689e+00
1.1508130e+01 1.4900538e+00 1.3204712e+00
1.1428374e+01 1.3511211e+00 1.2291184e+00
1.1344681e+01 1.2133938e+00 1.1397104e+00
1.1257052e+01 1.0768721e+00 1.0522472e+00
1.1165486e+01 9.4155590e-01 9.6672893e-01
1.1069983e+01 8.0744523e-01 8.8315547e-01
1.1069983e+01 8.0744523e-01 8.8315547e-01
1.0973465e+01 6.7303177e-01 8.0121667e-01
1.0876067e+01 5.3893358e-01 7.1984787e-01
1.0777790e+01 4.0515065e-01 6.3904906e-01
1.0678634e+01 2.7168299e-01 5.5882024e-01
1.0578598e+01 1.3853058e-01 4.7916141e-01
1.0477683e+01 5.6934400e-03 4.0007258e-01
1.9502050e+00 5.5757881e+00 1.1696914e+01
1.9206709e+00 5.5360197e+00 1.1511497e+01
1.8924448e+00 5.4941361e+00 1.1326412e+01
1.8655268e+00 5.4501375e+00 1.1141660e+01
1.8399169e+00 5.4040239e+00 1.0957240e+01
1.8156150e+00 5.3557951e+00 1.0773153e+01
1.7926212e+00 5.3054513e+00 1.0589399e+01
1.7926212e+00 5.3054513e+00 1.0589399e+01
1.7762045e+00 5.2597372e+00 1.0403227e+01
1.7671369e+00 5.2119478e+00 1.0217763e+01
1.7654186e+00 5.1620831e+00 1.0033006e+01
1.7710494e+00 5.1101430e+00 9.8489568e+00
1.7840294e+00 5.0561276e+00 9.6656148e+00
1.8043586e+00 5.0000369e+00 9.4829801e+00
1.8043586e+00 5.0000369e+00 9.4829801e+00
1.8379419e+00 4.9396517e+00 9.3026718e+00
1.8823043e+00 4.8764464e+00 9.1275181e+00
1.9374456e+00 4.8104210e+00 8.9575189e+00
2.0033658e+00 4.7415753e+00 8.7926742e+00
2.0800650e+00 4.6699095e+00 8.6329840e+00
2.1675432e+00 4.5954235e+00 8.4784484e+00
2.1675432e+00 4.5954235e+00 8.4784484e+00
2.2676419e+00 4.5182199e+00 8.3334182e+00
2.3756093e+00 4.4396622e+00 8.1967798e+00
2.4914456e+00 4.3597503e+00 8.0685334e+00
2.6151507e+00 4.2784842e+00 7.9486787e+00
2.7467246e+00 4.1958641e+00 7.8372160e+00
2.8861673e+00 4.1118897e+00 7.7341451e+00
2.8861673e+00 4.1118897e+00 7.7341451e+00
3.0263997e+00 4.0277235e+00 7.6349233e+00
3.1675936e+00 3.9422497e+00 7.5384549e+00
3.3097492e+00 3.8554684e+00 7.4447400e+00
3.4528664e+00 3.7673794e+00 7.3537785e+00
3.5969451e+00 3.6779829e+00 7.2655705e+00
3.7419855e+00 3.5872788e+00 7.1801159e+00
3.7419855e+00 3.5872788e+00 7.1801159e+00
3.8876182e+00 3.4946209e+00 7.0974330e+00
4.0306231e+00 3.3993202e+00 7.0135576e+00
4.1710002e+00 3.3013765e+00 6.9284897e+00
4.3087496e+00 3.2007898e+00 6.8422293e+00
4.4438711e+00 3.0975603e+00 6.7547765e+00
4.5763649e+00 2.9916878e+00 6.6661312e+00
4.5763649e+00 2.9916878e+00 6.6661312e+00
4.7045166e+00 2.8824785e+00 6.5733638e+00
4.8241179e+00 2.7696667e+00 6.4758597e+00
4.9351688e+00 2.6532522e+00 6.3736189e+00
5.0376693e+00 2.5332351e+00 6.2666414e+00
5.1316194e+00 2.4096154e+00 6.1549273e+00
5.2170192e+00 2.2823931e+00 6.0384765e+00
5.2170192e+00 2.2823931e+00 6.0384765e+00
5.2867879e+00 2.1510311e+00 5.9151643e+00
5.3436431e+00 2.0193041e+00 5.7884901e+00
5.3875848e+00 1.8872123e+00 5.6584540e+00
5.4186129e+00 1.7547557e+00 5.5250558e+00
5.4367276e+00 1.6219342e+00 5.3882956e+00
5.4419286e+00 1.4887478e+00 5.2481734e+00
5.4419286e+00 1.4887478e+00 5.2481734e+00
5.4356720e+00 1.3590040e+00 5.1062168e+00
5.4223331e+00 1.2307714e+00 4.9640466e+00
5.4019120e+00 1.1040500e+00 4.8216630e+00
5.3744087e+00 9.7883983e-01 4.6790660e+00
5.3398232e+00 8.5514086e-01 4.5362555e+00
5.2981555e+00 7.3295308e-01 4.3932316e+00
5.2981555e+00 7.3295308e-01 4.3932316e+00
5.2537464e+00 6.1022779e-01 4.2522851e+00
5.2077134e+00 4.8782414e-01 4.1115149e+00
5.1600565e+00 3.6574213e-01 3.9709210e+00
5.1107756e+00 2.4398177e-01 3.8305033e+00
5.0598708e+00 1.2254305e-01 3.6902619e+00
5.0073421e+00 1.4259700e-03 3.5501967e+00
7.3208000e-01 5.3668914e+00 1.3907449e+01
7.9260801e-01 5.4718382e+00 1.3752953e+01
8.6600503e-01 5.5768948e+00 1.3608378e+01
9.5227107e-01 5.6820612e+00 1.3473722e+01
1.0514061e+00 5.7873373e+00 1.3348986e+01
1.1634102e+00 5.8927232e+00 1.3234171e+01
1.2882832e+00 5.9982189e+00 1.3129275e+01
1.2882832e+00 5.9982189e+00 1.3129275e+01
1.4464245e+00 6.0938372e+00 1.3067406e+01
1.6111574e+00 6.1797780e+00 1.3020363e+01
1.7824820e+00 6.2560414e+00 1.2988148e+01
1.9603983e+00 6.3226272e+00 1.2970759e+01
2.1449063e+00 6.3795356e+00 1.2968197e+01
2.3360060e+00 6.4267664e+00 1.2980462e+01
2.3360060e+00 6.4267664e+00 1.2980462e+01
2.5283933e+00 6.4682731e+00 1.2992290e+01
2.7173712e+00 6.5066709e+00 1.2985578e+01
2.9029398e+00 6.5419599e+00 1.2960328e+01
3.0850990e+00 6.5741401e+00 1.2916539e+01
3.2638489e+00 6.6032114e+00 1.2854211e+01
3.4391895e+00 6.6291738e+00 1.2773344e+01
3.4391895e+00 6.6291738e+00 1.2773344e+01
3.5843499e+00 6.6525618e+00 1.2646247e+01
3.7172753e+00 6.6733672e+00 1.2509140e+01
3.8379657e+00 6.6915899e+00 1.2362020e+01
3.9464212e+00 6.7072301e+00 1.2204889e+01
[...]
POINT_DATA 4361
VECTORS U float
8.2972500e-01 2.6791400e-01 -6.6666300e-03
8.3855189e-01 2.6184711e-01 -2.0938278e-03
8.4702456e-01 2.5512644e-01 2.0286956e-03
8.5514300e-01 2.4775200e-01 5.7009400e-03
8.6290722e-01 2.3972378e-01 8.9229056e-03
8.7031722e-01 2.3104178e-01 1.1694592e-02
8.7737300e-01 2.2170600e-01 1.4016000e-02
8.7737300e-01 2.2170600e-01 1.4016000e-02
8.8300267e-01 2.1443478e-01 1.6145100e-02
8.8812167e-01 2.0650844e-01 1.7395033e-02
8.9273000e-01 1.9792700e-01 1.7765800e-02
8.9682767e-01 1.8869044e-01 1.7257400e-02
9.0041467e-01 1.7879878e-01 1.5869833e-02
9.0349100e-01 1.6825200e-01 1.3603100e-02
9.0349100e-01 1.6825200e-01 1.3603100e-02
9.0753500e-01 1.5647589e-01 1.2796900e-02
9.1113100e-01 1.4541989e-01 1.2568367e-02
9.1427900e-01 1.3508400e-01 1.2917500e-02
9.1697900e-01 1.2546822e-01 1.3844300e-02
9.1923100e-01 1.1657256e-01 1.5348767e-02
9.2103500e-01 1.0839700e-01 1.7430900e-02
9.2103500e-01 1.0839700e-01 1.7430900e-02
9.2267300e-01 1.0040519e-01 1.7025544e-02
9.2407333e-01 9.3027122e-02 1.6741411e-02
9.2523600e-01 8.6262800e-02 1.6578500e-02
9.2616100e-01 8.0112222e-02 1.6536811e-02
9.2684833e-01 7.4575389e-02 1.6616344e-02
9.2729800e-01 6.9652300e-02 1.6817100e-02
9.2729800e-01 6.9652300e-02 1.6817100e-02
9.2746356e-01 6.5043589e-02 1.7613167e-02
9.2755489e-01 6.0758789e-02 1.8538300e-02
9.2757200e-01 5.6797900e-02 1.9592500e-02
9.2751489e-01 5.3160922e-02 2.0775767e-02
9.2738356e-01 4.9847856e-02 2.2088100e-02
9.2717800e-01 4.6858700e-02 2.3529500e-02
9.2717800e-01 4.6858700e-02 2.3529500e-02
9.2703289e-01 4.3795411e-02 2.4853144e-02
9.2682656e-01 4.1209811e-02 2.5724211e-02
9.2655900e-01 3.9101900e-02 2.6142700e-02
9.2623022e-01 3.7471678e-02 2.6108611e-02
9.2584022e-01 3.6319144e-02 2.5621944e-02
9.2538900e-01 3.5644300e-02 2.4682700e-02
9.2538900e-01 3.5644300e-02 2.4682700e-02
9.2516411e-01 3.5497300e-02 2.4210110e-02
9.2404711e-01 3.6084333e-02 2.2799943e-02
9.2203800e-01 3.7405400e-02 2.0452200e-02
9.1913678e-01 3.9460500e-02 1.7166880e-02
9.1534344e-01 4.2249633e-02 1.2943983e-02
9.1065800e-01 4.5772800e-02 7.7835100e-03
9.1065800e-01 4.5772800e-02 7.7835100e-03
9.0240200e-01 5.6431056e-02 -3.4017222e-04
8.9463233e-01 6.6266089e-02 -7.7987756e-03
8.8734900e-01 7.5277900e-02 -1.4592300e-02
8.8055200e-01 8.3466489e-02 -2.0720746e-02
8.7424133e-01 9.0831856e-02 -2.6184112e-02
8.6841700e-01 9.7374000e-02 -3.0982400e-02
8.6841700e-01 9.7374000e-02 -3.0982400e-02
8.6358533e-01 9.3882211e-02 -2.6104067e-02
8.5813567e-01 8.9236044e-02 -2.0268633e-02
8.5206800e-01 8.3435500e-02 -1.3476100e-02
8.4538233e-01 7.6480578e-02 -5.7264667e-03
8.3807867e-01 6.8371278e-02 2.9802667e-03
8.3015700e-01 5.9107600e-02 1.2644100e-02
8.3015700e-01 5.9107600e-02 1.2644100e-02
8.2141800e-01 5.6681356e-02 1.9186267e-02
8.1224400e-01 5.4655456e-02 2.5435967e-02
8.0263500e-01 5.3029900e-02 3.1393200e-02
7.9259100e-01 5.1804689e-02 3.7057967e-02
7.8211200e-01 5.0979822e-02 4.2430267e-02
7.7119800e-01 5.0555300e-02 4.7510100e-02
7.7119800e-01 5.0555300e-02 4.7510100e-02
7.6029044e-01 5.0960878e-02 5.1611311e-02
7.4871511e-01 5.1286111e-02 5.5216344e-02
7.3647200e-01 5.1531000e-02 5.8325200e-02
7.2356111e-01 5.1695544e-02 6.0937878e-02
7.0998244e-01 5.1779744e-02 6.3054378e-02
6.9573600e-01 5.1783600e-02 6.4674700e-02
6.9573600e-01 5.1783600e-02 6.4674700e-02
6.8109078e-01 5.1587256e-02 6.5462878e-02
6.6700578e-01 5.1085789e-02 6.5608278e-02
6.5348100e-01 5.0279200e-02 6.5110900e-02
6.4051644e-01 4.9167489e-02 6.3970744e-02
6.2811211e-01 4.7750656e-02 6.2187811e-02
6.1626800e-01 4.6028700e-02 5.9762100e-02
6.1626800e-01 4.6028700e-02 5.9762100e-02
6.0453856e-01 4.3930356e-02 5.7088022e-02
5.9315622e-01 4.1487156e-02 5.4384156e-02
5.8212100e-01 3.8699100e-02 5.1650500e-02
5.7143289e-01 3.5566189e-02 4.8887056e-02
5.6109189e-01 3.2088422e-02 4.6093822e-02
5.5109800e-01 2.8265800e-02 4.3270800e-02
5.5109800e-01 2.8265800e-02 4.3270800e-02
5.4122911e-01 2.4695961e-02 4.0143544e-02
5.3141778e-01 2.1136028e-02 3.6904911e-02
5.2166400e-01 1.7586000e-02 3.3554900e-02
5.1196778e-01 1.4045878e-02 3.0093511e-02
5.0232911e-01 1.0515661e-02 2.6520744e-02
4.9274800e-01 6.9953500e-03 2.2836600e-02
4.9274800e-01 6.9953500e-03 2.2836600e-02
4.8271333e-01 2.9043611e-03 1.9434919e-02
4.7219967e-01 -1.3897356e-03 1.5968219e-02
4.6120700e-01 -5.8869400e-03 1.2436500e-02
4.4973533e-01 -1.0587252e-02 8.8397622e-03
4.3778467e-01 -1.5490672e-02 5.1780056e-03
4.2535500e-01 -2.0597200e-02 1.4512300e-03
4.2535500e-01 -2.0597200e-02 1.4512300e-03
4.1188544e-01 -2.5720200e-02 -2.5364278e-03
3.9739644e-01 -3.0640567e-02 -6.4199044e-03
3.8188800e-01 -3.5358300e-02 -1.0199200e-02
3.6536011e-01 -3.9873400e-02 -1.3874314e-02
3.4781278e-01 -4.4185867e-02 -1.7445248e-02
3.2924600e-01 -4.8295700e-02 -2.0912000e-02
3.2924600e-01 -4.8295700e-02 -2.0912000e-02
3.1070822e-01 -5.2322811e-02 -2.3027078e-02
2.9198256e-01 -5.5518911e-02 -2.4591178e-02
2.7306900e-01 -5.7884000e-02 -2.5604300e-02
2.5396756e-01 -5.9418078e-02 -2.6066444e-02
2.3467822e-01 -6.0121144e-02 -2.5977611e-02
2.1520100e-01 -5.9993200e-02 -2.5337800e-02
2.1520100e-01 -5.9993200e-02 -2.5337800e-02
1.9610811e-01 -5.7547989e-02 -2.5603156e-02
1.7810144e-01 -5.4599022e-02 -2.5648622e-02
1.6118100e-01 -5.1146300e-02 -2.5474200e-02
1.4534678e-01 -4.7189822e-02 -2.5079889e-02
1.3059878e-01 -4.2729589e-02 -2.4465689e-02
1.1693700e-01 -3.7765600e-02 -2.3631600e-02
1.1693700e-01 -3.7765600e-02 -2.3631600e-02
1.0308560e-01 -3.2528018e-02 -2.2352678e-02
9.0066533e-02 -2.7445551e-02 -2.0861911e-02
7.7879800e-02 -2.2518200e-02 -1.9159300e-02
6.6525400e-02 -1.7745964e-02 -1.7244844e-02
5.6003333e-02 -1.3128844e-02 -1.5118544e-02
4.6313600e-02 -8.6668400e-03 -1.2780400e-02
4.6313600e-02 -8.6668400e-03 -1.2780400e-02
3.8124197e-02 -5.7058767e-03 -1.0014267e-02
3.0397797e-02 -2.9719467e-03 -7.2629767e-03
2.3134400e-02 -4.6505000e-04 -4.5265300e-03
1.6334007e-02 1.8148133e-03 -1.8049267e-03
9.9966167e-03 3.8676433e-03 9.0183333e-04
4.1222300e-03 5.6934400e-03 3.5937500e-03
7.3208500e-01 3.6427600e-01 5.2358600e-02
7.2513778e-01 3.6073878e-01 5.4462389e-02
7.1719844e-01 3.5567278e-01 5.6979289e-02
7.0826700e-01 3.4907800e-01 5.9909300e-02
6.9834344e-01 3.4095444e-01 6.3252422e-02
6.8742778e-01 3.3130211e-01 6.7008656e-02
6.7552000e-01 3.2012100e-01 7.1178000e-02
6.7552000e-01 3.2012100e-01 7.1178000e-02
6.6569711e-01 3.1477411e-01 7.3533956e-02
6.5526178e-01 3.0920044e-01 7.5542189e-02
6.4421400e-01 3.0340000e-01 7.7202700e-02
6.3255378e-01 2.9737278e-01 7.8515489e-02
6.2028111e-01 2.9111878e-01 7.9480556e-02
6.0739600e-01 2.8463800e-01 8.0097900e-02
6.0739600e-01 2.8463800e-01 8.0097900e-02
5.9501967e-01 2.7666300e-01 8.0593789e-02
5.8178700e-01 2.6806067e-01 8.0196789e-02
5.6769800e-01 2.5883100e-01 7.8906900e-02
5.5275267e-01 2.4897400e-01 7.6724122e-02
5.3695100e-01 2.3848967e-01 7.3648456e-02
5.2029300e-01 2.2737800e-01 6.9679900e-02
5.2029300e-01 2.2737800e-01 6.9679900e-02
5.0536233e-01 2.1510600e-01 6.5239756e-02
4.9218933e-01 2.0277833e-01 6.2045856e-02
4.8077400e-01 1.9039500e-01 6.0098200e-02
4.7111633e-01 1.7795600e-01 5.9396789e-02
4.6321633e-01 1.6546133e-01 5.9941622e-02
4.5707400e-01 1.5291100e-01 6.1732700e-02
4.5707400e-01 1.5291100e-01 6.1732700e-02
4.4939422e-01 1.4115987e-01 6.1879567e-02
4.4158556e-01 1.2974887e-01 6.1627167e-02
4.3364800e-01 1.1867800e-01 6.0975500e-02
4.2558156e-01 1.0794727e-01 5.9924567e-02
4.1738622e-01 9.7556667e-02 5.8474367e-02
4.0906200e-01 8.7506200e-02 5.6624900e-02
4.0906200e-01 8.7506200e-02 5.6624900e-02
4.0183567e-01 7.7548822e-02 5.6466267e-02
3.9419400e-01 6.7843356e-02 5.5869333e-02
3.8613700e-01 5.8389800e-02 5.4834100e-02
3.7766467e-01 4.9188156e-02 5.3360567e-02
3.6877700e-01 4.0238422e-02 5.1448733e-02
3.5947400e-01 3.1540600e-02 4.9098600e-02
3.5947400e-01 3.1540600e-02 4.9098600e-02
3.4937889e-01 2.3466133e-02 4.5505189e-02
3.3815789e-01 1.5807933e-02 4.1513056e-02
3.2581100e-01 8.5660000e-03 3.7122200e-02
3.1233822e-01 1.7403333e-03 3.2332622e-02
2.9773956e-01 -4.6690667e-03 2.7144322e-02
2.8201500e-01 -1.0662200e-02 2.1557300e-02
2.8201500e-01 -1.0662200e-02 2.1557300e-02
2.6307700e-01 -1.6180100e-02 1.5826840e-02
2.4378700e-01 -2.0505633e-02 1.0801677e-02
2.2414500e-01 -2.3638800e-02 6.4818100e-03
2.0415100e-01 -2.5579600e-02 2.8672400e-03
1.8380500e-01 -2.6328033e-02 -4.2033333e-05
1.6310700e-01 -2.5884100e-02 -2.2460100e-03
1.6310700e-01 -2.5884100e-02 -2.2460100e-03
1.4404499e-01 -2.3387513e-02 -4.5812011e-03
1.2602432e-01 -2.0572647e-02 -6.4209544e-03
1.0904500e-01 -1.7439500e-02 -7.7652700e-03
9.3107022e-02 -1.3988073e-02 -8.6141478e-03
7.8210389e-02 -1.0218367e-02 -8.9675878e-03
6.4355100e-02 -6.1303800e-03 -8.8255900e-03
6.4355100e-02 -6.1303800e-03 -8.8255900e-03
5.2168180e-02 -4.1183111e-03 -7.0332822e-03
4.0648513e-02 -2.4073131e-03 -5.1261089e-03
2.9796100e-02 -9.9738600e-04 -3.1040700e-03
1.9610940e-02 1.1147022e-04 -9.6716556e-04
1.0093033e-02 9.1925556e-04 1.2846044e-03
1.2423800e-03 1.4259700e-03 3.6512400e-03
7.3208000e-01 3.9718700e-01 -1.2333400e-02
7.4191056e-01 3.9905967e-01 -7.4424222e-03
7.5124722e-01 3.9960667e-01 -2.7745956e-03
7.6009000e-01 3.9882800e-01 1.6700800e-03
7.6843889e-01 3.9672367e-01 5.8916044e-03
7.7629389e-01 3.9329367e-01 9.8899778e-03
7.8365500e-01 3.8853800e-01 1.3665200e-02
7.8365500e-01 3.8853800e-01 1.3665200e-02
7.9000256e-01 3.7969233e-01 1.5856650e-02
7.9585489e-01 3.6995767e-01 1.6795717e-02
8.0121200e-01 3.5933400e-01 1.6482400e-02
8.0607389e-01 3.4782133e-01 1.4916700e-02
8.1044056e-01 3.3541967e-01 1.2098617e-02
8.1431200e-01 3.2212900e-01 8.0281500e-03
8.1431200e-01 3.2212900e-01 8.0281500e-03
8.1791756e-01 3.0787356e-01 4.4872000e-03
8.2074522e-01 2.9537156e-01 1.2604167e-03
8.2279500e-01 2.8462300e-01 -1.6522000e-03
8.2406689e-01 2.7562789e-01 -4.2506500e-03
8.2456089e-01 2.6838622e-01 -6.5349333e-03
8.2427700e-01 2.6289800e-01 -8.5050500e-03
8.2427700e-01 2.6289800e-01 -8.5050500e-03
8.2359500e-01 2.6283400e-01 -9.2931467e-03
8.2354900e-01 2.6313000e-01 -9.6434433e-03
8.2413900e-01 2.6378600e-01 -9.5559400e-03
8.2536500e-01 2.6480200e-01 -9.0306367e-03
8.2722700e-01 2.6617800e-01 -8.0675333e-03
8.2972500e-01 2.6791400e-01 -6.6666300e-03
7.0757600e-01 3.8679600e-01 1.8324300e-02
7.1353389e-01 3.8573156e-01 2.6676600e-02
7.1874256e-01 3.8359156e-01 3.3956933e-02
7.2320200e-01 3.8037600e-01 4.0165300e-02
7.2691222e-01 3.7608489e-01 4.5301700e-02
7.2987322e-01 3.7071822e-01 4.9366133e-02
7.3208500e-01 3.6427600e-01 5.2358600e-02
8.6841700e-01 9.7374000e-02 -3.0982400e-02
8.6154700e-01 8.6167811e-02 -2.9807433e-02
8.5449567e-01 7.5464511e-02 -2.8337633e-02
8.4726300e-01 6.5264100e-02 -2.6573000e-02
8.3984900e-01 5.5566578e-02 -2.4513533e-02
8.3225367e-01 4.6371944e-02 -2.2159233e-02
8.2447700e-01 3.7680200e-02 -1.9510100e-02
8.2447700e-01 3.7680200e-02 -1.9510100e-02
8.2027911e-01 3.2491811e-02 -1.8872546e-02
8.1513344e-01 2.7716144e-02 -1.7299912e-02
8.0904000e-01 2.3353200e-02 -1.4792200e-02
8.0199878e-01 1.9402978e-02 -1.1349409e-02
7.9400978e-01 1.5865478e-02 -6.9715389e-03
7.8507300e-01 1.2740700e-02 -1.6585900e-03
7.8507300e-01 1.2740700e-02 -1.6585900e-03
7.7513489e-01 9.0030322e-03 2.9594167e-03
7.6487689e-01 5.7323122e-03 7.2072133e-03
7.5429900e-01 2.9285400e-03 1.1084800e-02
7.4340122e-01 5.9171556e-04 1.4592177e-02
7.3218356e-01 -1.2781611e-03 1.7729343e-02
7.2064600e-01 -2.6810900e-03 2.0496300e-02
7.2064600e-01 -2.6810900e-03 2.0496300e-02
7.0423311e-01 -4.1964067e-03 2.3071178e-02
6.8739444e-01 -5.4092800e-03 2.4837378e-02
6.7013000e-01 -6.3197100e-03 2.5794900e-02
6.5243978e-01 -6.9276967e-03 2.5943744e-02
6.3432378e-01 -7.2332400e-03 2.5283911e-02
6.1578200e-01 -7.2363400e-03 2.3815400e-02
6.1578200e-01 -7.2363400e-03 2.3815400e-02
6.0023133e-01 -6.0391522e-03 2.2614878e-02
5.8485300e-01 -4.4942856e-03 2.1196878e-02
5.6964700e-01 -2.6017400e-03 1.9561400e-02
5.5461333e-01 -3.6151556e-04 1.7708444e-02
5.3975200e-01 2.2263878e-03 1.5638011e-02
5.2506300e-01 5.1619700e-03 1.3350100e-02
5.2506300e-01 5.1619700e-03 1.3350100e-02
5.1016589e-01 7.5089056e-03 1.0409944e-02
4.9508389e-01 1.0089116e-02 7.4748011e-03
4.7981700e-01 1.2902600e-02 4.5446700e-03
4.6436522e-01 1.5949359e-02 1.6195511e-03
4.4872856e-01 1.9229392e-02 -1.3005556e-03
4.3290700e-01 2.2742700e-02 -4.2156500e-03
4.3290700e-01 2.2742700e-02 -4.2156500e-03
4.1850489e-01 2.5623222e-02 -6.9704833e-03
4.0303222e-01 2.8874856e-02 -9.2642000e-03
3.8648900e-01 3.2497600e-02 -1.1096800e-02
3.6887522e-01 3.6491456e-02 -1.2468283e-02
3.5019089e-01 4.0856422e-02 -1.3378650e-02
3.3043600e-01 4.5592500e-02 -1.3827900e-02
3.3043600e-01 4.5592500e-02 -1.3827900e-02
3.0730522e-01 5.1734456e-02 -1.2822936e-02
2.8508489e-01 5.6597856e-02 -1.1618802e-02
2.6377500e-01 6.0182700e-02 -1.0215500e-02
2.4337556e-01 6.2488989e-02 -8.6130289e-03
2.2388656e-01 6.3516722e-02 -6.8113889e-03
2.0530800e-01 6.3265900e-02 -4.8105800e-03
2.0530800e-01 6.3265900e-02 -4.8105800e-03
1.8557778e-01 6.1427844e-02 -2.8063744e-03
1.6715911e-01 5.8910511e-02 -1.0126031e-03
1.5005200e-01 5.5713900e-02 5.7073400e-04
1.3425644e-01 5.1838011e-02 1.9436369e-03
1.1977244e-01 4.7282844e-02 3.1061056e-03
1.0660000e-01 4.2048400e-02 4.0581400e-03
1.0660000e-01 4.2048400e-02 4.0581400e-03
9.4183289e-02 3.7088767e-02 5.5888667e-03
8.2345856e-02 3.2210000e-02 7.0326133e-03
7.1087700e-02 2.7412100e-02 8.3893800e-03
6.0408822e-02 2.2695067e-02 9.6591667e-03
5.0309222e-02 1.8058900e-02 1.0841973e-02
4.0788900e-02 1.3503600e-02 1.1937800e-02
4.0788900e-02 1.3503600e-02 1.1937800e-02
3.5436131e-02 1.1509636e-02 9.8803771e-03
2.9963331e-02 9.0714456e-03 7.8897771e-03
2.4370500e-02 6.1890300e-03 5.9660000e-03
1.8657638e-02 2.8623889e-03 4.1090458e-03
1.2824744e-02 -9.0847778e-04 2.3189144e-03
6.8718200e-03 -5.1235700e-03 5.9560600e-04
2.7651200e+00 1.9807100e-01 6.6864200e-02
2.7607378e+00 1.8306644e-01 7.1649256e-02
2.7559411e+00 1.6851478e-01 7.6314389e-02
2.7507300e+00 1.5441600e-01 8.0859600e-02
2.7451044e+00 1.4077011e-01 8.5284889e-02
2.7390644e+00 1.2757711e-01 8.9590256e-02
2.7326100e+00 1.1483700e-01 9.3775700e-02
2.7326100e+00 1.1483700e-01 9.3775700e-02
2.7269322e+00 1.0635212e-01 9.6447056e-02
2.7211622e+00 1.0018256e-01 9.8935156e-02
2.7153000e+00 9.6328300e-02 1.0124000e-01
2.7093456e+00 9.4789356e-02 1.0336159e-01
2.7032989e+00 9.5565722e-02 1.0529992e-01
2.6971600e+00 9.8657400e-02 1.0705500e-01
2.6971600e+00 9.8657400e-02 1.0705500e-01
2.6908122e+00 1.0142456e-01 1.0857356e-01
2.6836322e+00 1.0448409e-01 1.1022422e-01
2.6756200e+00 1.0783600e-01 1.1200700e-01
2.6667756e+00 1.1148029e-01 1.1392189e-01
2.6570989e+00 1.1541696e-01 1.1596889e-01
2.6465900e+00 1.1964600e-01 1.1814800e-01
2.6465900e+00 1.1964600e-01 1.1814800e-01
2.6325289e+00 1.2427844e-01 1.2180356e-01
2.6191589e+00 1.2670611e-01 1.2533689e-01
2.6064800e+00 1.2692900e-01 1.2874800e-01
2.5944922e+00 1.2494711e-01 1.3203689e-01
2.5831956e+00 1.2076044e-01 1.3520356e-01
2.5725900e+00 1.1436900e-01 1.3824800e-01
2.5725900e+00 1.1436900e-01 1.3824800e-01
2.5642967e+00 1.0707483e-01 1.3945100e-01
2.5564467e+00 9.9463100e-02 1.3959467e-01
2.5490400e+00 9.1533800e-02 1.3867900e-01
2.5420767e+00 8.3286933e-02 1.3670400e-01
2.5355567e+00 7.4722500e-02 1.3366967e-01
2.5294800e+00 6.5840500e-02 1.2957600e-01
2.5294800e+00 6.5840500e-02 1.2957600e-01
2.5176889e+00 7.3700389e-02 1.3040933e-01
2.5049489e+00 8.1136089e-02 1.3059067e-01
2.4912600e+00 8.8147600e-02 1.3012000e-01
2.4766222e+00 9.4734922e-02 1.2899733e-01
2.4610356e+00 1.0089806e-01 1.2722267e-01
2.4445000e+00 1.0663700e-01 1.2479600e-01
2.4445000e+00 1.0663700e-01 1.2479600e-01
2.4287889e+00 1.1003556e-01 1.1982359e-01
2.4142822e+00 1.1164722e-01 1.1443926e-01
2.4009800e+00 1.1147200e-01 1.0864300e-01
2.3888822e+00 1.0950989e-01 1.0243482e-01
2.3779889e+00 1.0576089e-01 9.5814722e-02
2.3683000e+00 1.0022500e-01 8.8782700e-02
2.3683000e+00 1.0022500e-01 8.8782700e-02
2.3601800e+00 9.3032133e-02 8.4580111e-02
2.3512967e+00 8.5562033e-02 7.9998511e-02
2.3416500e+00 7.7814700e-02 7.5037900e-02
2.3312400e+00 6.9790133e-02 6.9698278e-02
2.3200667e+00 6.1488333e-02 6.3979644e-02
2.3081300e+00 5.2909300e-02 5.7882000e-02
2.3081300e+00 5.2909300e-02 5.7882000e-02
2.2932033e+00 4.4449678e-02 4.9829478e-02
2.2767500e+00 3.7977878e-02 4.2449011e-02
2.2587700e+00 3.3493900e-02 3.5740600e-02
2.2392633e+00 3.0997744e-02 2.9704244e-02
2.2182300e+00 3.0489411e-02 2.4339944e-02
2.1956700e+00 3.1968900e-02 1.9647700e-02
2.1956700e+00 3.1968900e-02 1.9647700e-02
2.1726322e+00 3.7893878e-02 1.7557522e-02
2.1517389e+00 4.3790878e-02 1.5977122e-02
2.1329900e+00 4.9659900e-02 1.4906500e-02
2.1163856e+00 5.5500944e-02 1.4345656e-02
2.1019256e+00 6.1314011e-02 1.4294589e-02
2.0896100e+00 6.7099100e-02 1.4753300e-02
2.1274500e+00 8.9835900e-02 1.1896200e-03
2.1244100e+00 8.3410711e-02 1.5606778e-03
2.1200633e+00 7.8039811e-02 2.6875578e-03
2.1144100e+00 7.3723200e-02 4.5702600e-03
2.1074500e+00 7.0460878e-02 7.2087844e-03
2.0991833e+00 6.8252844e-02 1.0603131e-02
2.0896100e+00 6.7099100e-02 1.4753300e-02
2.6319900e+00 2.1688400e-01 6.4859500e-02
2.6239356e+00 2.1061878e-01 5.9247789e-02
2.6159056e+00 2.0425278e-01 5.3357222e-02
2.6079000e+00 1.9778600e-01 4.7187800e-02
2.5999189e+00 1.9121844e-01 4.0739522e-02
2.5919622e+00 1.8455011e-01 3.4012389e-02
2.5840300e+00 1.7778100e-01 2.7006400e-02
2.5840300e+00 1.7778100e-01 2.7006400e-02
2.5765378e+00 1.6958822e-01 2.0152700e-02
2.5692044e+00 1.6194122e-01 1.5088133e-02
2.5620300e+00 1.5484000e-01 1.1812700e-02
2.5550144e+00 1.4828456e-01 1.0326400e-02
2.5481578e+00 1.4227489e-01 1.0629233e-02
2.5414600e+00 1.3681100e-01 1.2721200e-02
2.5414600e+00 1.3681100e-01 1.2721200e-02
2.5307478e+00 1.3409144e-01 2.1448044e-02
2.5192078e+00 1.3214011e-01 3.0337111e-02
2.5068400e+00 1.3095700e-01 3.9388400e-02
2.4936444e+00 1.3054211e-01 4.8601911e-02
2.4796211e+00 1.3089544e-01 5.7977644e-02
2.4647700e+00 1.3201700e-01 6.7515600e-02
2.4647700e+00 1.3201700e-01 6.7515600e-02
2.4503844e+00 1.3515467e-01 7.8298333e-02
2.4353911e+00 1.3755633e-01 8.9315133e-02
2.4197900e+00 1.3922200e-01 1.0056600e-01
2.4035811e+00 1.4015167e-01 1.1205093e-01
2.3867644e+00 1.4034533e-01 1.2376993e-01
2.3693400e+00 1.3980300e-01 1.3572300e-01
2.3693400e+00 1.3980300e-01 1.3572300e-01
2.3516633e+00 1.3072589e-01 1.3487892e-01
2.3325833e+00 1.2264056e-01 1.2974526e-01
2.3121000e+00 1.1554700e-01 1.2032200e-01
2.2902133e+00 1.0944522e-01 1.0660916e-01
2.2669233e+00 1.0433522e-01 8.8606722e-02
2.2422300e+00 1.0021700e-01 6.6314700e-02
2.2422300e+00 1.0021700e-01 6.6314700e-02
2.2194778e+00 9.9083122e-02 4.9332209e-02
2.1981744e+00 9.7710722e-02 3.4801042e-02
2.1783200e+00 9.6099800e-02 2.2721200e-02
2.1599144e+00 9.4250356e-02 1.3092682e-02
2.1429578e+00 9.2162389e-02 5.9154889e-03
2.1274500e+00 8.9835900e-02 1.1896200e-03
1.5495700e+00 1.4738700e-01 -9.1638800e-03
1.5662856e+00 1.3464539e-01 -6.8363000e-03
1.5859722e+00 1.2286339e-01 -5.9014933e-03
1.6086300e+00 1.1204100e-01 -6.3594600e-03
1.6342589e+00 1.0217822e-01 -8.2102000e-03
1.6628589e+00 9.3275056e-02 -1.1453713e-02
1.6944300e+00 8.5331500e-02 -1.6090000e-02
1.6944300e+00 8.5331500e-02 -1.6090000e-02
1.7240278e+00 8.6788056e-02 -1.6547241e-02
1.7523544e+00 9.0481356e-02 -1.6071141e-02
1.7794100e+00 9.6411400e-02 -1.4661700e-02
1.8051944e+00 1.0457819e-01 -1.2318918e-02
1.8297078e+00 1.1498172e-01 -9.0427944e-03
1.8529500e+00 1.2762200e-01 -4.8333300e-03
1.8529500e+00 1.2762200e-01 -4.8333300e-03
1.8747144e+00 1.3993856e-01 -2.2063256e-03
1.8973211e+00 1.4976122e-01 3.3239444e-04
1.9207700e+00 1.5709000e-01 2.7828300e-03
1.9450611e+00 1.6192489e-01 5.1449811e-03
1.9701944e+00 1.6426589e-01 7.4188478e-03
1.9961700e+00 1.6411300e-01 9.6044300e-03
1.9961700e+00 1.6411300e-01 9.6044300e-03
2.0236000e+00 1.5443879e-01 9.8423311e-03
2.0488100e+00 1.4368246e-01 9.4240844e-03
2.0718000e+00 1.3184400e-01 8.3496900e-03
2.0925700e+00 1.1892342e-01 6.6191478e-03
2.1111200e+00 1.0492072e-01 4.2324578e-03
2.1274500e+00 8.9835900e-02 1.1896200e-03
1.2694200e+00 4.6078900e-01 -9.1501400e-03