# vtk DataFile Version 2.0
test
ASCII
DATASET POLYDATA
POINTS 4361 float
3.3635154e+00 6.4841253e+00 1.1866484e+01
3.4601521e+00 6.5551617e+00 1.1733192e+01
3.5593969e+00 6.6264676e+00 1.1602187e+01
3.6612498e+00 6.6980431e+00 1.1473468e+01
3.7657108e+00 6.7698880e+00 1.1347035e+01
3.8727799e+00 6.8420025e+00 1.1222888e+01
3.9824571e+00 6.9143865e+00 1.1101028e+01
3.9824571e+00 6.9143865e+00 1.1101028e+01
4.0981873e+00 6.9881126e+00 1.0983375e+01
4.2210654e+00 7.0613091e+00 1.0875779e+01
4.3510915e+00 7.1339759e+00 1.0778238e+01
4.4882655e+00 7.2061130e+00 1.0690753e+01
4.6325875e+00 7.2777205e+00 1.0613325e+01
4.7840575e+00 7.3487982e+00 1.0545952e+01
4.7840575e+00 7.3487982e+00 1.0545952e+01
4.9440876e+00 7.4170802e+00 1.0497225e+01
5.1068199e+00 7.4815620e+00 1.0461299e+01
5.2722542e+00 7.5422436e+00 1.0438175e+01
5.4403907e+00 7.5991250e+00 1.0427852e+01
5.6112293e+00 7.6522062e+00 1.0430330e+01
5.7847701e+00 7.7014873e+00 1.0445609e+01
5.7847701e+00 7.7014873e+00 1.0445609e+01
5.9568769e+00 7.7461795e+00 1.0468968e+01
6.1290168e+00 7.7875327e+00 1.0496018e+01
6.3011896e+00 7.8255468e+00 1.0526759e+01
6.4733954e+00 7.8602219e+00 1.0561189e+01
6.6456341e+00 7.8915578e+00 1.0599311e+01
6.8179058e+00 7.9195547e+00 1.0641123e+01
6.8179058e+00 7.9195547e+00 1.0641123e+01
6.9906035e+00 7.9449539e+00 1.0682819e+01
7.1642941e+00 7.9676267e+00 1.0720482e+01
7.3389775e+00 7.9875733e+00 1.0754113e+01
7.5146539e+00 8.0047934e+00 1.0783711e+01
7.6913232e+00 8.0192872e+00 1.0809275e+01
7.8689853e+00 8.0310546e+00 1.0830807e+01
7.8689853e+00 8.0310546e+00 1.0830807e+01
8.0493614e+00 8.0399582e+00 1.0843602e+01
8.2281682e+00 8.0458861e+00 1.0843163e+01
8.4054057e+00 8.0488385e+00 1.0829493e+01
8.5810738e+00 8.0488154e+00 1.0802589e+01
8.7551726e+00 8.0458167e+00 1.0762454e+01
8.9277021e+00 8.0398424e+00 1.0709086e+01
8.9277021e+00 8.0398424e+00 1.0709086e+01
9.0927589e+00 8.0307746e+00 1.0636854e+01
9.2509083e+00 8.0201149e+00 1.0554283e+01
9.4021503e+00 8.0078632e+00 1.0461374e+01
9.5464849e+00 7.9940196e+00 1.0358126e+01
9.6839121e+00 7.9785841e+00 1.0244540e+01
9.8144318e+00 7.9615567e+00 1.0120615e+01
9.8144318e+00 7.9615567e+00 1.0120615e+01
9.9383436e+00 7.9445831e+00 9.9922320e+00
1.0059649e+01 7.9272500e+00 9.8615908e+00
1.0178347e+01 7.9095575e+00 9.7286912e+00
1.0294438e+01 7.8915055e+00 9.5935332e+00
1.0407923e+01 7.8730941e+00 9.4561168e+00
1.0518801e+01 7.8543232e+00 9.3164419e+00
1.0518801e+01 7.8543232e+00 9.3164419e+00
1.0423516e+01 7.7904408e+00 9.1726134e+00
1.0329517e+01 7.7259608e+00 9.0282392e+00
1.0236807e+01 7.6608832e+00 8.8833194e+00
1.0145383e+01 7.5952081e+00 8.7378540e+00
1.0055248e+01 7.5289355e+00 8.5918430e+00
9.9663992e+00 7.4620653e+00 8.4452863e+00
9.9663992e+00 7.4620653e+00 8.4452863e+00
9.8800296e+00 7.3946342e+00 8.2971792e+00
9.7983960e+00 7.3256790e+00 8.1474853e+00
9.7214983e+00 7.2551996e+00 7.9962046e+00
9.6493366e+00 7.1831959e+00 7.8433371e+00
9.5819109e+00 7.1096680e+00 7.6888828e+00
9.5192211e+00 7.0346159e+00 7.5328417e+00
9.5192211e+00 7.0346159e+00 7.5328417e+00
9.4636130e+00 6.9573208e+00 7.3744506e+00
9.4172514e+00 6.8779781e+00 7.2152673e+00
9.3801362e+00 6.7965876e+00 7.0552918e+00
9.3522675e+00 6.7131495e+00 6.8945242e+00
9.3336452e+00 6.6276637e+00 6.7329645e+00
9.3242694e+00 6.5401302e+00 6.5706126e+00
9.3242694e+00 6.5401302e+00 6.5706126e+00
9.3272117e+00 6.4506728e+00 6.4089226e+00
9.3401012e+00 6.3602100e+00 6.2495777e+00
9.3629378e+00 6.2687419e+00 6.0925780e+00
9.3957215e+00 6.1762683e+00 5.9379234e+00
9.4384525e+00 6.0827893e+00 5.7856139e+00
9.4911305e+00 5.9883050e+00 5.6356496e+00
9.4911305e+00 5.9883050e+00 5.6356496e+00
9.5519553e+00 5.8936857e+00 5.4897524e+00
9.6181758e+00 5.7986492e+00 5.3470293e+00
9.6897920e+00 5.7031954e+00 5.2074804e+00
9.7668039e+00 5.6073244e+00 5.0711057e+00
9.8492114e+00 5.5110360e+00 4.9379052e+00
9.9370146e+00 5.4143305e+00 4.8078788e+00
9.9370146e+00 5.4143305e+00 4.8078788e+00
1.0027698e+01 5.3172321e+00 4.6806349e+00
1.0119901e+01 5.2191245e+00 4.5553814e+00
1.0213624e+01 5.1200076e+00 4.4321183e+00
1.0308868e+01 5.0198814e+00 4.3108456e+00
1.0405632e+01 4.9187460e+00 4.1915633e+00
1.0503916e+01 4.8166013e+00 4.0742714e+00
1.0503916e+01 4.8166013e+00 4.0742714e+00
1.0602165e+01 4.7129532e+00 3.9582848e+00
1.0698857e+01 4.6071884e+00 3.8430296e+00
1.0793993e+01 4.4993068e+00 3.7285059e+00
1.0887573e+01 4.3893085e+00 3.6147136e+00
1.0979597e+01 4.2771935e+00 3.5016527e+00
1.1070064e+01 4.1629617e+00 3.3893232e+00
1.1070064e+01 4.1629617e+00 3.3893232e+00
1.1157576e+01 4.0458994e+00 3.2770109e+00
1.1239622e+01 3.9256522e+00 3.1646777e+00
1.1316201e+01 3.8022202e+00 3.0523236e+00
1.1387312e+01 3.6756034e+00 2.9399486e+00
1.1452958e+01 3.5458017e+00 2.8275528e+00
1.1513136e+01 3.4128152e+00 2.7151360e+00
1.1513136e+01 3.4128152e+00 2.7151360e+00
1.1565159e+01 3.2757901e+00 2.6023963e+00
1.1607252e+01 3.1363657e+00 2.4903372e+00
1.1639415e+01 2.9945423e+00 2.3789586e+00
1.1661647e+01 2.8503197e+00 2.2682605e+00
1.1673949e+01 2.7036979e+00 2.1582430e+00
1.1676321e+01 2.5546771e+00 2.0489060e+00
1.1676321e+01 2.5546771e+00 2.0489060e+00
1.1666284e+01 2.4049105e+00 1.9412708e+00
1.1647020e+01 2.2557069e+00 1.8357578e+00
1.1618528e+01 2.1070662e+00 1.7323669e+00
1.1580808e+01 1.9589884e+00 1.6310981e+00
1.1533861e+01 1.8114735e+00 1.5319514e+00
1.1477687e+01 1.6645216e+00 1.4349269e+00
1.1477687e+01 1.6645216e+00 1.4349269e+00
1.1414448e+01 1.5195946e+00 1.3404612e+00
1.1346516e+01 1.3760174e+00 1.2477512e+00
1.1273891e+01 1.2337900e+00 1.1567969e+00
1.1196572e+01 1.0929124e+00 1.0675983e+00
1.1114561e+01 9.5338461e-01 9.8015538e-01
1.1027857e+01 8.1520667e-01 8.9446816e-01
1.1027857e+01 8.1520667e-01 8.9446816e-01
1.0938763e+01 6.7810173e-01 8.1005090e-01
1.0848371e+01 5.4151724e-01 7.2621777e-01
1.0756680e+01 4.0545319e-01 6.4296876e-01
1.0663690e+01 2.6990958e-01 5.6030388e-01
1.0569401e+01 1.3488642e-01 4.7822313e-01
1.0473813e+01 3.8370700e-04 3.9672651e-01
1.2759411e+00 5.2412752e+00 1.1649252e+01
1.2527754e+00 5.2047737e+00 1.1461890e+01
1.2318350e+00 5.1675640e+00 1.1274472e+01
1.2131198e+00 5.1296461e+00 1.1086997e+01
1.1966298e+00 5.0910200e+00 1.0899466e+01
1.1823651e+00 5.0516857e+00 1.0711878e+01
1.1703255e+00 5.0116432e+00 1.0524234e+01
1.1703255e+00 5.0116432e+00 1.0524234e+01
1.1629230e+00 4.9708483e+00 1.0335872e+01
1.1634347e+00 4.9281804e+00 1.0148536e+01
1.1718606e+00 4.8836396e+00 9.9622253e+00
1.1882006e+00 4.8372257e+00 9.7769397e+00
1.2124549e+00 4.7889389e+00 9.5926795e+00
1.2446233e+00 4.7387791e+00 9.4094447e+00
1.2446233e+00 4.7387791e+00 9.4094447e+00
1.2896237e+00 4.6856941e+00 9.2286562e+00
1.3462027e+00 4.6303625e+00 9.0538463e+00
1.4143601e+00 4.5727844e+00 8.8850149e+00
1.4940960e+00 4.5129596e+00 8.7221622e+00
1.5854103e+00 4.4508882e+00 8.5652881e+00
1.6883031e+00 4.3865702e+00 8.4143926e+00
1.6883031e+00 4.3865702e+00 8.4143926e+00
1.8022069e+00 4.3206078e+00 8.2734381e+00
1.9223530e+00 4.2533476e+00 8.1397298e+00
2.0487416e+00 4.1847897e+00 8.0132676e+00
2.1813726e+00 4.1149339e+00 7.8940515e+00
2.3202460e+00 4.0437804e+00 7.7820815e+00
2.4653618e+00 3.9713290e+00 7.6773577e+00
2.4653618e+00 3.9713290e+00 7.6773577e+00
2.6126833e+00 3.8979604e+00 7.5779874e+00
2.7610875e+00 3.8229725e+00 7.4817439e+00
2.9105743e+00 3.7463651e+00 7.3886271e+00
3.0611438e+00 3.6681384e+00 7.2986372e+00
3.2127960e+00 3.5882924e+00 7.2117740e+00
3.3655309e+00 3.5068270e+00 7.1280377e+00
3.3655309e+00 3.5068270e+00 7.1280377e+00
3.5178510e+00 3.4233312e+00 7.0455248e+00
3.6679316e+00 3.3369677e+00 6.9622230e+00
3.8157726e+00 3.2477364e+00 6.8781324e+00
3.9613742e+00 3.1556373e+00 6.7932529e+00
4.1047362e+00 3.0606705e+00 6.7075845e+00
4.2458586e+00 2.9628359e+00 6.6211272e+00
4.2458586e+00 2.9628359e+00 6.6211272e+00
4.3833817e+00 2.8610894e+00 6.5317043e+00
4.5133971e+00 2.7553462e+00 6.4379133e+00
4.6359048e+00 2.6456064e+00 6.3397542e+00
4.7509047e+00 2.5318699e+00 6.2372271e+00
4.8583970e+00 2.4141368e+00 6.1303319e+00
4.9583816e+00 2.2924071e+00 6.0190687e+00
4.9583816e+00 2.2924071e+00 6.0190687e+00
5.0456861e+00 2.1660647e+00 5.9010526e+00
5.1203760e+00 2.0382623e+00 5.7790082e+00
5.1824513e+00 1.9090000e+00 5.6529354e+00
5.2319121e+00 1.7782777e+00 5.5228343e+00
5.2687583e+00 1.6460955e+00 5.3887049e+00
5.2929900e+00 1.5124533e+00 5.2505471e+00
5.2929900e+00 1.5124533e+00 5.2505471e+00
5.3042088e+00 1.3803888e+00 5.1106728e+00
5.3073719e+00 1.2495490e+00 4.9701382e+00
5.3024796e+00 1.1199340e+00 4.8289431e+00
5.2895316e+00 9.9154386e-01 4.6870877e+00
5.2685281e+00 8.6437845e-01 4.5445719e+00
5.2394690e+00 7.3843783e-01 4.4013958e+00
5.2394690e+00 7.3843783e-01 4.4013958e+00
5.2061547e+00 6.1388237e-01 4.2587878e+00
5.1706125e+00 4.8992644e-01 4.1162501e+00
5.1328423e+00 3.6657003e-01 3.9737828e+00
5.0928441e+00 2.4381316e-01 3.8313858e+00
5.0506180e+00 1.2165581e-01 3.6890591e+00
5.0061640e+00 9.7994800e-05 3.5468028e+00
5.7866000e-02 5.0029998e+00 1.3919168e+01
1.0940211e-01 5.1062129e+00 1.3760157e+01
1.7426540e-01 5.2107438e+00 1.3611271e+01
2.5245587e-01 5.3165925e+00 1.3472510e+01
3.4397351e-01 5.4237591e+00 1.3343873e+01
4.4881834e-01 5.5322435e+00 1.3225361e+01
5.6699034e-01 5.6420457e+00 1.3116973e+01
5.6699034e-01 5.6420457e+00 1.3116973e+01
7.1937362e-01 5.7457143e+00 1.3053073e+01
8.7880289e-01 5.8405209e+00 1.3005148e+01
1.0452782e+00 5.9264654e+00 1.2973200e+01
1.2187995e+00 6.0035478e+00 1.2957228e+01
1.3993667e+00 6.0717681e+00 1.2957233e+01
1.5869800e+00 6.1311263e+00 1.2973214e+01
1.5869800e+00 6.1311263e+00 1.2973214e+01
1.7761251e+00 6.1856534e+00 1.2988274e+01
1.9625632e+00 6.2354561e+00 1.2984504e+01
2.1462942e+00 6.2805343e+00 1.2961902e+01
2.3273181e+00 6.3208881e+00 1.2920470e+01
2.5056350e+00 6.3565175e+00 1.2860207e+01
2.6812448e+00 6.3874225e+00 1.2781112e+01
2.6812448e+00 6.3874225e+00 1.2781112e+01
2.8269888e+00 6.4107807e+00 1.2654681e+01
2.9599199e+00 6.4312425e+00 1.2517848e+01
3.0800381e+00 6.4488078e+00 1.2370611e+01
3.1873434e+00 6.4634767e+00 1.2212971e+01
[...]
POINT_DATA 4361
VECTORS U float
6.6613200e-02 2.1276800e-02 -7.7330600e-04
6.7414300e-02 2.0817100e-02 -3.7111333e-04
6.8188167e-02 2.0304167e-02 -1.9233333e-06
6.8934800e-02 1.9738000e-02 3.3426400e-04
6.9654200e-02 1.9118600e-02 6.3744867e-04
7.0346367e-02 1.8445967e-02 9.0763067e-04
7.1011300e-02 1.7720100e-02 1.1448100e-03
7.1011300e-02 1.7720100e-02 1.1448100e-03
7.1551622e-02 1.7138489e-02 1.3674867e-03
7.2049522e-02 1.6494922e-02 1.5206700e-03
7.2505000e-02 1.5789400e-02 1.6043600e-03
7.2918056e-02 1.5021922e-02 1.6185567e-03
7.3288689e-02 1.4192489e-02 1.5632600e-03
7.3616900e-02 1.3301100e-02 1.4384700e-03
7.3616900e-02 1.3301100e-02 1.4384700e-03
7.4006278e-02 1.2314517e-02 1.4135444e-03
7.4351378e-02 1.1390683e-02 1.4169344e-03
7.4652200e-02 1.0529600e-02 1.4486400e-03
7.4908744e-02 9.7312667e-03 1.5086611e-03
7.5121011e-02 8.9956833e-03 1.5969978e-03
7.5289000e-02 8.3228500e-03 1.7136500e-03
7.5289000e-02 8.3228500e-03 1.7136500e-03
7.5446867e-02 7.6678678e-03 1.6448267e-03
7.5582333e-02 7.0657944e-03 1.5909300e-03
7.5695400e-02 6.5166300e-03 1.5519600e-03
7.5786067e-02 6.0203744e-03 1.5279167e-03
7.5854333e-02 5.5770278e-03 1.5188000e-03
7.5900200e-02 5.1865900e-03 1.5246100e-03
7.5900200e-02 5.1865900e-03 1.5246100e-03
7.5921389e-02 4.8214556e-03 1.5751889e-03
7.5934422e-02 4.4863189e-03 1.6449922e-03
7.5939300e-02 4.1811800e-03 1.7340200e-03
7.5936022e-02 3.9060389e-03 1.8422722e-03
7.5924589e-02 3.6608956e-03 1.9697489e-03
7.5905000e-02 3.4457500e-03 2.1164500e-03
7.5905000e-02 3.4457500e-03 2.1164500e-03
7.5893244e-02 3.2235078e-03 2.2478689e-03
7.5877011e-02 3.0395244e-03 2.3407956e-03
7.5856300e-02 2.8938000e-03 2.3952300e-03
7.5831111e-02 2.7863344e-03 2.4111722e-03
7.5801444e-02 2.7171278e-03 2.3886222e-03
7.5767300e-02 2.6861800e-03 2.3275800e-03
7.5767300e-02 2.6861800e-03 2.3275800e-03
7.5753233e-02 2.7169067e-03 2.3071649e-03
7.5661900e-02 2.7846700e-03 2.2019782e-03
7.5493300e-02 2.8894700e-03 2.0120200e-03
7.5247433e-02 3.0313067e-03 1.7372902e-03
7.4924300e-02 3.2101800e-03 1.3777889e-03
7.4523900e-02 3.4260900e-03 9.3351600e-04
7.4523900e-02 3.4260900e-03 9.3351600e-04
7.3824433e-02 4.1291333e-03 2.0690889e-04
7.3157533e-02 4.7723433e-03 -4.6023311e-04
7.2523200e-02 5.3557200e-03 -1.0679100e-03
7.1921433e-02 5.8792633e-03 -1.6161218e-03
7.1352233e-02 6.3429733e-03 -2.1048684e-03
7.0815600e-02 6.7468500e-03 -2.5341500e-03
7.0815600e-02 6.7468500e-03 -2.5341500e-03
7.0391578e-02 6.5122811e-03 -2.1228438e-03
6.9912544e-02 6.1947944e-03 -1.6479771e-03
6.9378500e-02 5.7943900e-03 -1.1095500e-03
6.8789444e-02 5.3110678e-03 -5.0756244e-04
6.8145378e-02 4.7448278e-03 1.5798556e-04
6.7446300e-02 4.0956700e-03 8.8709400e-04
6.7446300e-02 4.0956700e-03 8.8709400e-04
6.6709956e-02 3.9366344e-03 1.4019133e-03
6.5941122e-02 3.8120311e-03 1.8887953e-03
6.5139800e-02 3.7218600e-03 2.3477400e-03
6.4305989e-02 3.6661211e-03 2.7787473e-03
6.3439689e-02 3.6448144e-03 3.1818173e-03
6.2540900e-02 3.6579400e-03 3.5569500e-03
6.2540900e-02 3.6579400e-03 3.5569500e-03
6.1650078e-02 3.7135844e-03 3.8633000e-03
6.0705678e-02 3.7616478e-03 4.1261767e-03
5.9707700e-02 3.8021300e-03 4.3455800e-03
5.8656144e-02 3.8350311e-03 4.5215100e-03
5.7551011e-02 3.8603511e-03 4.6539667e-03
5.6392300e-02 3.8780900e-03 4.7429500e-03
5.6392300e-02 3.8780900e-03 4.7429500e-03
5.5176544e-02 3.8823767e-03 4.7543378e-03
5.4028778e-02 3.8588100e-03 4.7239678e-03
5.2949000e-02 3.8073900e-03 4.6518400e-03
5.1937211e-02 3.7281167e-03 4.5379544e-03
5.0993411e-02 3.6209900e-03 4.3823111e-03
5.0117600e-02 3.4860100e-03 4.1849100e-03
5.0117600e-02 3.4860100e-03 4.1849100e-03
4.9244744e-02 3.3187267e-03 3.9772411e-03
4.8395778e-02 3.1273733e-03 3.7663311e-03
4.7570700e-02 2.9119500e-03 3.5521800e-03
4.6769511e-02 2.6724567e-03 3.3347878e-03
4.5992211e-02 2.4088933e-03 3.1141544e-03
4.5238800e-02 2.1212600e-03 2.8902800e-03
4.5238800e-02 2.1212600e-03 2.8902800e-03
4.4498678e-02 1.8633673e-03 2.6384989e-03
4.3764878e-02 1.6045273e-03 2.3813022e-03
4.3037400e-02 1.3447400e-03 2.1186900e-03
4.2316244e-02 1.0840053e-03 1.8506622e-03
4.1601411e-02 8.2232333e-04 1.5772189e-03
4.0892900e-02 5.5969400e-04 1.2983600e-03
4.0892900e-02 5.5969400e-04 1.2983600e-03
4.0152878e-02 2.4023056e-04 1.0525442e-03
3.9378244e-02 -9.2064444e-05 7.9670389e-04
3.8569000e-02 -4.3719100e-04 5.3083900e-04
3.7725144e-02 -7.9514911e-04 2.5494956e-04
3.6846678e-02 -1.1659388e-03 -3.0964444e-05
3.5933600e-02 -1.5495600e-03 -3.2690300e-04
3.5933600e-02 -1.5495600e-03 -3.2690300e-04
3.4940456e-02 -1.9306044e-03 -6.5875833e-04
3.3861289e-02 -2.3101478e-03 -9.8234400e-04
3.2696100e-02 -2.6881900e-03 -1.2976600e-03
3.1444889e-02 -3.0647311e-03 -1.6047063e-03
3.0107656e-02 -3.4397711e-03 -1.9034830e-03
2.8684400e-02 -3.8133100e-03 -2.1939900e-03
2.8684400e-02 -3.8133100e-03 -2.1939900e-03
2.7260500e-02 -4.1916356e-03 -2.3681789e-03
2.5794133e-02 -4.5050256e-03 -2.5019222e-03
2.4285300e-02 -4.7534800e-03 -2.5952200e-03
2.2734000e-02 -4.9369989e-03 -2.6480722e-03
2.1140233e-02 -5.0555822e-03 -2.6604789e-03
1.9504000e-02 -5.1092300e-03 -2.6324400e-03
1.9504000e-02 -5.1092300e-03 -2.6324400e-03
1.7841422e-02 -4.9663956e-03 -2.6719400e-03
1.6255189e-02 -4.7691522e-03 -2.6850500e-03
1.4745300e-02 -4.5175000e-03 -2.6717700e-03
1.3311756e-02 -4.2114389e-03 -2.6321000e-03
1.1954556e-02 -3.8509689e-03 -2.5660400e-03
1.0673700e-02 -3.4360900e-03 -2.4735900e-03
1.0673700e-02 -3.4360900e-03 -2.4735900e-03
9.4029467e-03 -2.9872608e-03 -2.3626878e-03
8.2080967e-03 -2.5492508e-03 -2.2290878e-03
7.0891500e-03 -2.1220600e-03 -2.0727900e-03
6.0461067e-03 -1.7056884e-03 -1.8937944e-03
5.0789667e-03 -1.3001361e-03 -1.6921011e-03
4.1877300e-03 -9.0540300e-04 -1.4677100e-03
4.1877300e-03 -9.0540300e-04 -1.4677100e-03
3.4228108e-03 -6.3592133e-04 -1.1800377e-03
2.7014441e-03 -3.8829167e-04 -8.9307533e-04
2.0236300e-03 -1.6251400e-04 -6.0682300e-04
1.3893684e-03 4.1411667e-05 -3.2128067e-04
7.9865944e-04 2.2348533e-04 -3.6448333e-05
2.5150300e-04 3.8370700e-04 2.4767400e-04
5.7821100e-02 2.9763100e-02 4.6970800e-03
5.7242356e-02 2.9492844e-02 4.8559378e-03
5.6588656e-02 2.9100678e-02 5.0389944e-03
5.5860000e-02 2.8586600e-02 5.2462500e-03
5.5056389e-02 2.7950611e-02 5.4777044e-03
5.4177822e-02 2.7192711e-02 5.7333578e-03
5.3224300e-02 2.6312900e-02 6.0132100e-03
5.3224300e-02 2.6312900e-02 6.0132100e-03
5.2415644e-02 2.5885200e-02 6.1791144e-03
5.1559544e-02 2.5433067e-02 6.3152778e-03
5.0656000e-02 2.4956500e-02 6.4217000e-03
4.9705011e-02 2.4455500e-02 6.4983811e-03
4.8706578e-02 2.3930067e-02 6.5453211e-03
4.7660700e-02 2.3380200e-02 6.5625200e-03
4.7660700e-02 2.3380200e-02 6.5625200e-03
4.6701456e-02 2.2705367e-02 6.5781578e-03
4.5685389e-02 2.1976767e-02 6.5249778e-03
4.4612500e-02 2.1194400e-02 6.4029800e-03
4.3482789e-02 2.0358267e-02 6.2121644e-03
4.2296256e-02 1.9468367e-02 5.9525311e-03
4.1052900e-02 1.8524700e-02 5.6240800e-03
4.1052900e-02 1.8524700e-02 5.6240800e-03
3.9927333e-02 1.7493911e-02 5.2597011e-03
3.8933033e-02 1.6463811e-02 4.9958211e-03
3.8070000e-02 1.5434400e-02 4.8324400e-03
3.7338233e-02 1.4405678e-02 4.7695578e-03
3.6737733e-02 1.3377644e-02 4.8071744e-03
3.6268500e-02 1.2350300e-02 4.9452900e-03
3.6268500e-02 1.2350300e-02 4.9452900e-03
3.5677844e-02 1.1396770e-02 4.9436844e-03
3.5079378e-02 1.0471593e-02 4.9161444e-03
3.4473100e-02 9.5747700e-03 4.8626700e-03
3.3859011e-02 8.7063000e-03 4.7832611e-03
3.3237111e-02 7.8661833e-03 4.6779178e-03
3.2607400e-02 7.0544200e-03 4.5466400e-03
3.2607400e-02 7.0544200e-03 4.5466400e-03
3.2068478e-02 6.2591111e-03 4.5580833e-03
3.1502478e-02 5.4908778e-03 4.5348133e-03
3.0909400e-02 4.7497200e-03 4.4768300e-03
3.0289244e-02 4.0356378e-03 4.3841333e-03
2.9642011e-02 3.3486311e-03 4.2567233e-03
2.8967700e-02 2.6887000e-03 4.0946000e-03
2.8967700e-02 2.6887000e-03 4.0946000e-03
2.8244011e-02 2.0769643e-03 3.8457067e-03
2.7437111e-02 1.4874603e-03 3.5666967e-03
2.6547000e-02 9.2018800e-04 3.2575700e-03
2.5573678e-02 3.7514733e-04 2.9183267e-03
2.4517144e-02 -1.4766167e-04 2.5489667e-03
2.3377400e-02 -6.4823900e-04 2.1494900e-03
2.3377400e-02 -6.4823900e-04 2.1494900e-03
2.1975122e-02 -1.1464739e-03 1.7151208e-03
2.0519822e-02 -1.5474376e-03 1.3197108e-03
1.9011500e-02 -1.8511300e-03 9.6326000e-04
1.7450156e-02 -2.0575512e-03 6.4576844e-04
1.5835789e-02 -2.1667012e-03 3.6723611e-04
1.4168400e-02 -2.1785800e-03 1.2766300e-04
1.4168400e-02 -2.1785800e-03 1.2766300e-04
1.2581779e-02 -2.0027356e-03 -1.2513789e-04
1.1063156e-02 -1.7950322e-03 -3.2942322e-04
9.6125300e-03 -1.5554700e-03 -4.8519300e-04
8.2299022e-03 -1.2840489e-03 -5.9244722e-04
6.9152722e-03 -9.8076889e-04 -6.5118589e-04
5.6686400e-03 -6.4563000e-04 -6.6140900e-04
5.6686400e-03 -6.4563000e-04 -6.6140900e-04
4.5764937e-03 -4.6373109e-04 -5.3065011e-04
3.5475771e-03 -3.0501676e-04 -3.9094344e-04
2.5818900e-03 -1.6948700e-04 -2.4228900e-04
1.6794326e-03 -5.7141822e-05 -8.4686778e-05
8.4020472e-04 3.2018778e-05 8.1863222e-05
6.4206500e-05 9.7994800e-05 2.5736100e-04
5.7866000e-02 3.3295400e-02 -6.1475600e-04
5.8704656e-02 3.3434300e-02 -2.3852333e-04
5.9507589e-02 3.3455600e-02 1.1909333e-04
6.0274800e-02 3.3359300e-02 4.5809400e-04
6.1006289e-02 3.3145400e-02 7.7847867e-04
6.1702056e-02 3.2813900e-02 1.0802473e-03
6.2362100e-02 3.2364800e-02 1.3634000e-03
6.2362100e-02 3.2364800e-02 1.3634000e-03
6.2951722e-02 3.1569456e-02 1.5234658e-03
6.3500422e-02 3.0700522e-02 1.5805724e-03
6.4008200e-02 2.9758000e-02 1.5347200e-03
6.4475056e-02 2.8741889e-02 1.3859084e-03
6.4900989e-02 2.7652189e-02 1.1341378e-03
6.5286000e-02 2.6488900e-02 7.7940800e-04
6.5286000e-02 2.6488900e-02 7.7940800e-04
6.5649411e-02 2.5253867e-02 4.7143250e-04
6.5937211e-02 2.4156700e-02 1.8559660e-04
6.6149400e-02 2.3197400e-02 -7.8099700e-05
6.6285978e-02 2.2375967e-02 -3.1965640e-04
6.6346944e-02 2.1692400e-02 -5.3907350e-04
6.6332300e-02 2.1146700e-02 -7.3635100e-04
6.6332300e-02 2.1146700e-02 -7.3635100e-04
6.6233922e-02 2.1052911e-02 -8.5925322e-04
6.6193622e-02 2.1005311e-02 -9.3545822e-04
6.6211400e-02 2.1003900e-02 -9.6496600e-04
6.6287256e-02 2.1048678e-02 -9.4777656e-04
6.6421189e-02 2.1139644e-02 -8.8388989e-04
6.6613200e-02 2.1276800e-02 -7.7330600e-04
5.5519300e-02 3.2184000e-02 1.9314300e-03
5.6088822e-02 3.2029933e-02 2.6078911e-03
5.6583989e-02 3.1776100e-02 3.1981444e-03
5.7004800e-02 3.1422500e-02 3.7021900e-03
5.7351256e-02 3.0969133e-02 4.1200278e-03
5.7623356e-02 3.0416000e-02 4.4516578e-03
5.7821100e-02 2.9763100e-02 4.6970800e-03
7.0815600e-02 6.7468500e-03 -2.5341500e-03
7.0353167e-02 5.9941544e-03 -2.4408478e-03
6.9882433e-02 5.2814178e-03 -2.3333378e-03
6.9403400e-02 4.6086400e-03 -2.2116200e-03
6.8916067e-02 3.9758211e-03 -2.0756944e-03
6.8420433e-02 3.3829611e-03 -1.9255611e-03
6.7916500e-02 2.8300600e-03 -1.7612200e-03
6.7916500e-02 2.8300600e-03 -1.7612200e-03
6.7637822e-02 2.4802294e-03 -1.7537029e-03
6.7277222e-02 2.1463094e-03 -1.6686629e-03
6.6834700e-02 1.8283000e-03 -1.5061000e-03
6.6310256e-02 1.5262011e-03 -1.2660142e-03
6.5703889e-02 1.2400128e-03 -9.4840556e-04
6.5015600e-02 9.6973500e-04 -5.5327400e-04
6.5015600e-02 9.6973500e-04 -5.5327400e-04
6.4269711e-02 6.5393944e-04 -2.2327556e-04
6.3495444e-02 3.8268211e-04 8.8190444e-05
6.2692800e-02 1.5596300e-04 3.8112400e-04
6.1861778e-02 -2.6217889e-05 6.5552511e-04
6.1002378e-02 -1.6386056e-04 9.1139378e-04
6.0114600e-02 -2.5696500e-04 1.1487300e-03
6.0114600e-02 -2.5696500e-04 1.1487300e-03
5.8791900e-02 -3.6863833e-04 1.4132956e-03
5.7424400e-02 -4.5449233e-04 1.6160822e-03
5.6012100e-02 -5.1452700e-04 1.7570900e-03
5.4555000e-02 -5.4874233e-04 1.8363189e-03
5.3053100e-02 -5.5713833e-04 1.8537689e-03
5.1506400e-02 -5.3971500e-04 1.8094400e-03
5.1506400e-02 -5.3971500e-04 1.8094400e-03
5.0195600e-02 -4.2049389e-04 1.7631622e-03
4.8887167e-02 -2.7128709e-04 1.6958889e-03
4.7581100e-02 -9.2094600e-05 1.6076200e-03
4.6277400e-02 1.1708358e-04 1.4983556e-03
4.4976067e-02 3.5624744e-04 1.3680956e-03
4.3677100e-02 6.2539700e-04 1.2168400e-03
4.3677100e-02 6.2539700e-04 1.2168400e-03
4.2364244e-02 8.4386722e-04 1.0109975e-03
4.1029044e-02 1.0852649e-03 8.0824046e-04
3.9671500e-02 1.3495900e-03 6.0856900e-04
3.8291611e-02 1.6368426e-03 4.1198309e-04
3.6889378e-02 1.9470226e-03 2.1848272e-04
3.5464800e-02 2.2801300e-03 2.8067900e-05
3.5464800e-02 2.2801300e-03 2.8067900e-05
3.4172344e-02 2.5601367e-03 -1.5676072e-04
3.2795978e-02 2.8529767e-03 -3.0539302e-04
3.1335700e-02 3.1586500e-03 -4.1782900e-04
2.9791511e-02 3.4771567e-03 -4.9406866e-04
2.8163411e-02 3.8084967e-03 -5.3411199e-04
2.6451400e-02 4.1526700e-03 -5.3795900e-04
2.6451400e-02 4.1526700e-03 -5.3795900e-04
2.4423133e-02 4.6012767e-03 -3.8778161e-04
2.2497433e-02 4.9449967e-03 -2.3217271e-04
2.0674300e-02 5.1838300e-03 -7.1132300e-05
1.8953733e-02 5.3177767e-03 9.5339622e-05
1.7335733e-02 5.3468367e-03 2.6724306e-04
1.5820300e-02 5.2710100e-03 4.4457800e-04
1.5820300e-02 5.2710100e-03 4.4457800e-04
1.4241917e-02 5.0510056e-03 6.0348900e-04
1.2777850e-02 4.7834356e-03 7.2749633e-04
1.1428100e-02 4.4683000e-03 8.1660000e-04
1.0192667e-02 4.1055989e-03 8.7080000e-04
9.0715500e-03 3.6953322e-03 8.9009633e-04
8.0647500e-03 3.2375000e-03 8.7448900e-04
8.0647500e-03 3.2375000e-03 8.7448900e-04
7.1514278e-03 2.8260511e-03 8.8432722e-04
6.2783211e-03 2.4279011e-03 8.9753456e-04
5.4454300e-03 2.0430500e-03 9.1411100e-04
4.6527544e-03 1.6714978e-03 9.3405656e-04
3.9002944e-03 1.3132444e-03 9.5737122e-04
3.1880500e-03 9.6829000e-04 9.8405500e-04
3.1880500e-03 9.6829000e-04 9.8405500e-04
2.7552467e-03 8.1712322e-04 7.8850072e-04
2.3211600e-03 6.3432756e-04 6.0824272e-04
1.8857900e-03 4.1990300e-04 4.4328100e-04
1.4491367e-03 1.7384956e-04 2.9361556e-04
1.0112000e-03 -1.0383278e-04 1.5924639e-04
5.7198000e-04 -4.1314400e-04 4.0173500e-05
2.2767200e-01 1.7339600e-02 6.3038600e-03
2.2737111e-01 1.6135711e-02 6.7135344e-03
2.2703411e-01 1.4956678e-02 7.1122678e-03
2.2666100e-01 1.3802500e-02 7.5000600e-03
2.2625178e-01 1.2673178e-02 7.8769111e-03
2.2580644e-01 1.1568711e-02 8.2428211e-03
2.2532500e-01 1.0489100e-02 8.5977900e-03
2.2532500e-01 1.0489100e-02 8.5977900e-03
2.2490589e-01 9.7781867e-03 8.7947578e-03
2.2448956e-01 9.2691300e-03 8.9821578e-03
2.2407600e-01 8.9619300e-03 9.1599900e-03
2.2366522e-01 8.8565867e-03 9.3282544e-03
2.2325722e-01 8.9531000e-03 9.4869511e-03
2.2285200e-01 9.2514700e-03 9.6360800e-03
2.2285200e-01 9.2514700e-03 9.6360800e-03
2.2240067e-01 9.5197611e-03 9.7821778e-03
2.2187067e-01 9.8100044e-03 9.9438178e-03
2.2126200e-01 1.0122200e-02 1.0121000e-02
2.2057467e-01 1.0456348e-02 1.0313724e-02
2.1980867e-01 1.0812448e-02 1.0521991e-02
2.1896400e-01 1.1190500e-02 1.0745800e-02
2.1896400e-01 1.1190500e-02 1.0745800e-02
2.1784556e-01 1.1583022e-02 1.1096333e-02
2.1678656e-01 1.1797889e-02 1.1434100e-02
2.1578700e-01 1.1835100e-02 1.1759100e-02
2.1484689e-01 1.1694656e-02 1.2071333e-02
2.1396622e-01 1.1376556e-02 1.2370800e-02
2.1314500e-01 1.0880800e-02 1.2657500e-02
2.1314500e-01 1.0880800e-02 1.2657500e-02
2.1251322e-01 1.0330252e-02 1.2810222e-02
2.1191556e-01 9.7471156e-03 1.2871556e-02
2.1135200e-01 9.1313900e-03 1.2841500e-02
2.1082256e-01 8.4830756e-03 1.2720056e-02
2.1032722e-01 7.8021722e-03 1.2507222e-02
2.0986600e-01 7.0886800e-03 1.2203000e-02
2.0986600e-01 7.0886800e-03 1.2203000e-02
2.0883511e-01 7.6720611e-03 1.2262644e-02
2.0772844e-01 8.2234178e-03 1.2260578e-02
2.0654600e-01 8.7427500e-03 1.2196800e-02
2.0528778e-01 9.2300578e-03 1.2071311e-02
2.0395378e-01 9.6853411e-03 1.1884111e-02
2.0254400e-01 1.0108600e-02 1.1635200e-02
2.0254400e-01 1.0108600e-02 1.1635200e-02
2.0123589e-01 1.0331606e-02 1.1182873e-02
2.0003922e-01 1.0414972e-02 1.0707107e-02
1.9895400e-01 1.0358700e-02 1.0207900e-02
1.9798022e-01 1.0162789e-02 9.6852533e-03
1.9711789e-01 9.8272389e-03 9.1391667e-03
1.9636700e-01 9.3520500e-03 8.5696400e-03
1.9636700e-01 9.3520500e-03 8.5696400e-03
1.9575433e-01 8.7727433e-03 8.2423067e-03
1.9508400e-01 8.1665600e-03 7.8858133e-03
1.9435600e-01 7.5335000e-03 7.5001600e-03
1.9357033e-01 6.8735633e-03 7.0853467e-03
1.9272700e-01 6.1867500e-03 6.6413733e-03
1.9182600e-01 5.4730600e-03 6.1682400e-03
1.9182600e-01 5.4730600e-03 6.1682400e-03
1.9069478e-01 4.7452689e-03 5.5247656e-03
1.8942278e-01 4.1655289e-03 4.9279222e-03
1.8801000e-01 3.7338400e-03 4.3777100e-03
1.8645644e-01 3.4502022e-03 3.8741289e-03
1.8476211e-01 3.3146156e-03 3.4171789e-03
1.8292700e-01 3.3270800e-03 3.0068600e-03
1.8292700e-01 3.3270800e-03 3.0068600e-03
1.8098233e-01 3.7092311e-03 2.8021322e-03
1.7921900e-01 4.0990044e-03 2.6490489e-03
1.7763700e-01 4.4964000e-03 2.5476100e-03
1.7623633e-01 4.9014178e-03 2.4978156e-03
1.7501700e-01 5.3140578e-03 2.4996656e-03
1.7397900e-01 5.7343200e-03 2.5531600e-03
1.7693900e-01 7.6983000e-03 1.4391200e-03
1.7674678e-01 7.1319256e-03 1.4307267e-03
1.7643411e-01 6.6611689e-03 1.4999600e-03
1.7600100e-01 6.2860300e-03 1.6468200e-03
1.7544744e-01 6.0065089e-03 1.8713067e-03
1.7477344e-01 5.8226056e-03 2.1734200e-03
1.7397900e-01 5.7343200e-03 2.5531600e-03
2.1650700e-01 1.9166400e-02 5.8301900e-03
2.1586922e-01 1.8653467e-02 5.3545344e-03
2.1524056e-01 1.8136067e-02 4.8615344e-03
2.1462100e-01 1.7614200e-02 4.3511900e-03
2.1401056e-01 1.7087867e-02 3.8235011e-03
2.1340922e-01 1.6557067e-02 3.2784678e-03
2.1281700e-01 1.6021800e-02 2.7160900e-03
2.1281700e-01 1.6021800e-02 2.7160900e-03
2.1227111e-01 1.5386067e-02 2.1906022e-03
2.1173311e-01 1.4798167e-02 1.8091856e-03
2.1120300e-01 1.4258100e-02 1.5718400e-03
2.1068078e-01 1.3765867e-02 1.4785656e-03
2.1016644e-01 1.3321467e-02 1.5293622e-03
2.0966000e-01 1.2924900e-02 1.7242300e-03
2.0966000e-01 1.2924900e-02 1.7242300e-03
2.0882889e-01 1.2687022e-02 2.4374478e-03
2.0792622e-01 1.2505122e-02 3.1677311e-03
2.0695200e-01 1.2379200e-02 3.9150800e-03
2.0590622e-01 1.2309256e-02 4.6794944e-03
2.0478889e-01 1.2295289e-02 5.4609744e-03
2.0360000e-01 1.2337300e-02 6.2595200e-03
2.0360000e-01 1.2337300e-02 6.2595200e-03
2.0243033e-01 1.2547533e-02 7.1818778e-03
2.0121633e-01 1.2698467e-02 8.1284711e-03
1.9995800e-01 1.2790100e-02 9.0993000e-03
1.9865533e-01 1.2822433e-02 1.0094364e-02
1.9730833e-01 1.2795467e-02 1.1113664e-02
1.9591700e-01 1.2709200e-02 1.2157200e-02
1.9591700e-01 1.2709200e-02 1.2157200e-02
1.9457789e-01 1.1995790e-02 1.2200256e-02
1.9313956e-01 1.1323923e-02 1.1889456e-02
1.9160200e-01 1.0693600e-02 1.1224800e-02
1.8996522e-01 1.0104820e-02 1.0206289e-02
1.8822922e-01 9.5575833e-03 8.8339222e-03
1.8639400e-01 9.0518900e-03 7.1077000e-03
1.8639400e-01 9.0518900e-03 7.1077000e-03
1.8463400e-01 8.8305500e-03 5.7163200e-03
1.8294767e-01 8.6075067e-03 4.5035867e-03
1.8133500e-01 8.3827600e-03 3.4695000e-03
1.7979600e-01 8.1563100e-03 2.6140600e-03
1.7833067e-01 7.9281567e-03 1.9372667e-03
1.7693900e-01 7.6983000e-03 1.4391200e-03
1.2825400e-01 1.1430300e-02 1.0069700e-04
1.2977611e-01 1.0364279e-02 2.6204344e-04
1.3155844e-01 9.4133856e-03 3.0201011e-04
1.3360100e-01 8.5776200e-03 2.2059700e-04
1.3590378e-01 7.8569822e-03 1.7804111e-05
1.3846678e-01 7.2514722e-03 -3.0636856e-04
1.4129000e-01 6.7610900e-03 -7.5192100e-04
1.4129000e-01 6.7610900e-03 -7.5192100e-04
1.4372978e-01 7.0561611e-03 -8.0783678e-04
1.4601211e-01 7.5009911e-03 -7.8457978e-04
1.4813700e-01 8.0955800e-03 -6.8215000e-04
1.5010444e-01 8.8399278e-03 -5.0054744e-04
1.5191444e-01 9.7340344e-03 -2.3977211e-04
1.5356700e-01 1.0777900e-02 1.0017600e-04
1.5356700e-01 1.0777900e-02 1.0017600e-04
1.5516078e-01 1.1788533e-02 3.5154444e-04
1.5686211e-01 1.2606533e-02 6.1580111e-04
1.5867100e-01 1.3231900e-02 8.9294600e-04
1.6058744e-01 1.3664633e-02 1.1829791e-03
1.6261144e-01 1.3904733e-02 1.4859004e-03
1.6474300e-01 1.3952200e-02 1.8017100e-03
1.6474300e-01 1.3952200e-02 1.8017100e-03
1.6719956e-01 1.3207856e-02 1.9417033e-03
1.6948656e-01 1.2344322e-02 2.0015267e-03
1.7160400e-01 1.1361600e-02 1.9811800e-03
1.7355189e-01 1.0259689e-02 1.8806633e-03
1.7533022e-01 9.0385889e-03 1.6999767e-03
1.7693900e-01 7.6983000e-03 1.4391200e-03
1.0353600e-01 3.8175500e-02 -4.6428300e-04
1.0427011e-01 3.7168844e-02 -5.1558111e-04