# vtk DataFile Version 2.0
test
ASCII
DATASET POLYDATA
POINTS 4361 float
5.5738222e+00 7.1970345e+00 1.1858629e+01
5.6886334e+00 7.2512615e+00 1.1735168e+01
5.8050176e+00 7.3041427e+00 1.1612674e+01
5.9229750e+00 7.3556781e+00 1.1491146e+01
6.0425055e+00 7.4058676e+00 1.1370584e+01
6.1636091e+00 7.4547114e+00 1.1250990e+01
6.2862858e+00 7.5022094e+00 1.1132361e+01
6.2862858e+00 7.5022094e+00 1.1132361e+01
6.4120601e+00 7.5575549e+00 1.1017536e+01
6.5437336e+00 7.6111146e+00 1.0910429e+01
6.6813065e+00 7.6628885e+00 1.0811039e+01
6.8247786e+00 7.7128766e+00 1.0719367e+01
6.9741500e+00 7.7610788e+00 1.0635413e+01
7.1294206e+00 7.8074951e+00 1.0559176e+01
7.1294206e+00 7.8074951e+00 1.0559176e+01
7.2967758e+00 7.8472958e+00 1.0506012e+01
7.4660329e+00 7.8850025e+00 1.0468234e+01
7.6371920e+00 7.9206150e+00 1.0445841e+01
7.8102531e+00 7.9541335e+00 1.0438834e+01
7.9852161e+00 7.9855580e+00 1.0447213e+01
8.1620811e+00 8.0148884e+00 1.0470977e+01
8.1620811e+00 8.0148884e+00 1.0470977e+01
8.3369201e+00 8.0401138e+00 1.0495537e+01
8.5113778e+00 8.0633840e+00 1.0523673e+01
8.6854542e+00 8.0846992e+00 1.0555385e+01
8.8591493e+00 8.1040593e+00 1.0590674e+01
9.0324631e+00 8.1214642e+00 1.0629538e+01
9.2053956e+00 8.1369141e+00 1.0671979e+01
9.2053956e+00 8.1369141e+00 1.0671979e+01
9.3781121e+00 8.1504332e+00 1.0716124e+01
9.5517530e+00 8.1620065e+00 1.0756004e+01
9.7263182e+00 8.1716341e+00 1.0791617e+01
9.9018079e+00 8.1793158e+00 1.0822964e+01
1.0078222e+01 8.1850518e+00 1.0850045e+01
1.0255560e+01 8.1888419e+00 1.0872860e+01
1.0255560e+01 8.1888419e+00 1.0872860e+01
1.0435602e+01 8.1897515e+00 1.0887023e+01
1.0613801e+01 8.1887655e+00 1.0886777e+01
1.0790159e+01 8.1858837e+00 1.0872121e+01
1.0964676e+01 8.1811062e+00 1.0843055e+01
1.1137351e+01 8.1744331e+00 1.0799579e+01
1.1308185e+01 8.1658642e+00 1.0741694e+01
1.1308185e+01 8.1658642e+00 1.0741694e+01
1.1471616e+01 8.1550721e+00 1.0665632e+01
1.1626466e+01 8.1456463e+00 1.0577859e+01
1.1772737e+01 8.1375867e+00 1.0478376e+01
1.1910427e+01 8.1308934e+00 1.0367182e+01
1.2039538e+01 8.1255664e+00 1.0244277e+01
1.2160068e+01 8.1216056e+00 1.0109661e+01
1.2160068e+01 8.1216056e+00 1.0109661e+01
1.2266600e+01 8.1388335e+00 9.9668473e+00
1.2372049e+01 8.1530716e+00 9.8229193e+00
1.2476414e+01 8.1643198e+00 9.6778771e+00
1.2579695e+01 8.1725782e+00 9.5317207e+00
1.2681892e+01 8.1778467e+00 9.3844501e+00
1.2783006e+01 8.1801254e+00 9.2360653e+00
1.2783006e+01 8.1801254e+00 9.2360653e+00
1.2676151e+01 8.1058730e+00 9.1033404e+00
1.2569272e+01 8.0279709e+00 8.9732123e+00
1.2462368e+01 7.9464188e+00 8.8456810e+00
1.2355441e+01 7.8612169e+00 8.7207466e+00
1.2248489e+01 7.7723652e+00 8.5984091e+00
1.2141513e+01 7.6798636e+00 8.4786683e+00
1.2141513e+01 7.6798636e+00 8.4786683e+00
1.2033832e+01 7.6052054e+00 8.3476231e+00
1.1929754e+01 7.5294078e+00 8.2147170e+00
1.1829279e+01 7.4524707e+00 8.0799501e+00
1.1732406e+01 7.3743942e+00 7.9433225e+00
1.1639137e+01 7.2951783e+00 7.8048340e+00
1.1549470e+01 7.2148230e+00 7.6644848e+00
1.1549470e+01 7.2148230e+00 7.6644848e+00
1.1466039e+01 7.1363357e+00 7.5185262e+00
1.1390235e+01 7.0555912e+00 7.3706983e+00
1.1322059e+01 6.9725895e+00 7.2210013e+00
1.1261510e+01 6.8873305e+00 7.0694350e+00
1.1208590e+01 6.7998144e+00 6.9159994e+00
1.1163297e+01 6.7100411e+00 6.7606946e+00
1.1163297e+01 6.7100411e+00 6.7606946e+00
1.1131185e+01 6.6178052e+00 6.6042696e+00
1.1108562e+01 6.5240493e+00 6.4481404e+00
1.1095429e+01 6.4287735e+00 6.2923071e+00
1.1091784e+01 6.3319776e+00 6.1367698e+00
1.1097629e+01 6.2336618e+00 5.9815283e+00
1.1112963e+01 6.1338260e+00 5.8265827e+00
1.1112963e+01 6.1338260e+00 5.8265827e+00
1.1137054e+01 6.0328394e+00 5.6743066e+00
1.1167653e+01 5.9303372e+00 5.5250341e+00
1.1204761e+01 5.8263195e+00 5.3787652e+00
1.1248378e+01 5.7207860e+00 5.2355000e+00
1.1298503e+01 5.6137370e+00 5.0952385e+00
1.1355136e+01 5.5051724e+00 4.9579806e+00
1.1355136e+01 5.5051724e+00 4.9579806e+00
1.1414434e+01 5.3960280e+00 4.8230062e+00
1.1475315e+01 5.2860731e+00 4.6894719e+00
1.1537777e+01 5.1753077e+00 4.5573776e+00
1.1601820e+01 5.0637318e+00 4.4267234e+00
1.1667446e+01 4.9513454e+00 4.2975093e+00
1.1734653e+01 4.8381486e+00 4.1697351e+00
1.1734653e+01 4.8381486e+00 4.1697351e+00
1.1800581e+01 4.7230777e+00 4.0432420e+00
1.1863511e+01 4.6052647e+00 3.9176799e+00
1.1923444e+01 4.4847096e+00 3.7930488e+00
1.1980380e+01 4.3614123e+00 3.6693489e+00
1.2034319e+01 4.2353730e+00 3.5465800e+00
1.2085260e+01 4.1065915e+00 3.4247421e+00
1.2085260e+01 4.1065915e+00 3.4247421e+00
1.2131321e+01 3.9749117e+00 3.3036221e+00
1.2170241e+01 3.8415065e+00 3.1827680e+00
1.2202022e+01 3.7063759e+00 3.0621798e+00
1.2226661e+01 3.5695199e+00 2.9418574e+00
1.2244161e+01 3.4309384e+00 2.8218009e+00
1.2254520e+01 3.2906315e+00 2.7020102e+00
1.2254520e+01 3.2906315e+00 2.7020102e+00
1.2256847e+01 3.1473518e+00 2.5843015e+00
1.2250194e+01 3.0036112e+00 2.4685943e+00
1.2234561e+01 2.8594098e+00 2.3548885e+00
1.2209947e+01 2.7147475e+00 2.2431842e+00
1.2176353e+01 2.5696243e+00 2.1334813e+00
1.2133778e+01 2.4240403e+00 2.0257799e+00
1.2133778e+01 2.4240403e+00 2.0257799e+00
1.2082030e+01 2.2821362e+00 1.9175991e+00
1.2023963e+01 2.1414146e+00 1.8117428e+00
1.1959580e+01 2.0018757e+00 1.7082109e+00
1.1888878e+01 1.8635193e+00 1.6070035e+00
1.1811859e+01 1.7263455e+00 1.5081205e+00
1.1728522e+01 1.5903542e+00 1.4115620e+00
1.1728522e+01 1.5903542e+00 1.4115620e+00
1.1636646e+01 1.4567785e+00 1.3192870e+00
1.1541770e+01 1.3241922e+00 1.2290317e+00
1.1443895e+01 1.1925952e+00 1.1407961e+00
1.1343021e+01 1.0619877e+00 1.0545801e+00
1.1239147e+01 9.3236947e-01 9.7038389e-01
1.1132274e+01 8.0374067e-01 8.8820731e-01
1.1132274e+01 8.0374067e-01 8.8820731e-01
1.1026301e+01 6.7266016e-01 8.0697462e-01
1.0919914e+01 5.4178071e-01 7.2631165e-01
1.0813116e+01 4.1110231e-01 6.4621840e-01
1.0705905e+01 2.8062498e-01 5.6669486e-01
1.0598282e+01 1.5034871e-01 4.8774104e-01
1.0490246e+01 2.0273500e-02 4.0935693e-01
3.2698100e+00 6.1643321e+00 1.1748668e+01
3.2293864e+00 6.1176687e+00 1.1567458e+01
3.1885164e+00 6.0663465e+00 1.1387844e+01
3.1471998e+00 6.0103655e+00 1.1209828e+01
3.1054368e+00 5.9497259e+00 1.1033408e+01
3.0632272e+00 5.8844274e+00 1.0858586e+01
3.0205712e+00 5.8144703e+00 1.0685361e+01
3.0205712e+00 5.8144703e+00 1.0685361e+01
2.9888874e+00 5.7589383e+00 1.0504645e+01
2.9634785e+00 5.7012239e+00 1.0324188e+01
2.9443446e+00 5.6413271e+00 1.0143988e+01
2.9314856e+00 5.5792478e+00 9.9640449e+00
2.9249016e+00 5.5149860e+00 9.7843598e+00
2.9245926e+00 5.4485419e+00 9.6049322e+00
2.9245926e+00 5.4485419e+00 9.6049322e+00
2.9353334e+00 5.3765963e+00 9.4271573e+00
2.9547751e+00 5.3011663e+00 9.2529846e+00
2.9829176e+00 5.2222520e+00 9.0824140e+00
3.0197609e+00 5.1398532e+00 8.9154454e+00
3.0653052e+00 5.0539700e+00 8.7520789e+00
3.1195502e+00 4.9646025e+00 8.5923145e+00
3.1195502e+00 4.9646025e+00 8.5923145e+00
3.1908295e+00 4.8698107e+00 8.4411810e+00
3.2732633e+00 4.7731083e+00 8.3002709e+00
3.3668516e+00 4.6744953e+00 8.1695842e+00
3.4715943e+00 4.5739717e+00 8.0491208e+00
3.5874916e+00 4.4715375e+00 7.9388809e+00
3.7145433e+00 4.3671927e+00 7.8388644e+00
3.7145433e+00 4.3671927e+00 7.8388644e+00
3.8398243e+00 4.2636701e+00 7.7405540e+00
3.9656103e+00 4.1593463e+00 7.6439260e+00
4.0919012e+00 4.0542214e+00 7.5489805e+00
4.2186970e+00 3.9482953e+00 7.4557173e+00
4.3459978e+00 3.8415680e+00 7.3641364e+00
4.4738035e+00 3.7340396e+00 7.2742380e+00
4.4738035e+00 3.7340396e+00 7.2742380e+00
4.6034254e+00 3.6240934e+00 7.1888847e+00
4.7291487e+00 3.5115355e+00 7.1016659e+00
4.8509732e+00 3.3963657e+00 7.0125816e+00
4.9688991e+00 3.2785840e+00 6.9216318e+00
5.0829264e+00 3.1581905e+00 6.8288164e+00
5.1930549e+00 3.0351852e+00 6.7341356e+00
5.1930549e+00 3.0351852e+00 6.7341356e+00
5.2960860e+00 2.9097102e+00 6.6330370e+00
5.3885916e+00 2.7823071e+00 6.5266886e+00
5.4705718e+00 2.6529761e+00 6.4150905e+00
5.5420264e+00 2.5217170e+00 6.2982426e+00
5.6029555e+00 2.3885300e+00 6.1761450e+00
5.6533592e+00 2.2534149e+00 6.0487977e+00
5.6533592e+00 2.2534149e+00 6.0487977e+00
5.6853198e+00 2.1175553e+00 5.9159029e+00
5.7055387e+00 1.9828469e+00 5.7815715e+00
5.7140158e+00 1.8492897e+00 5.6458034e+00
5.7107512e+00 1.7168837e+00 5.5085986e+00
5.6957448e+00 1.5856289e+00 5.3699572e+00
5.6689966e+00 1.4555253e+00 5.2298791e+00
5.6689966e+00 1.4555253e+00 5.2298791e+00
5.6350735e+00 1.3298705e+00 5.0878794e+00
5.5961363e+00 1.2060147e+00 4.9459204e+00
5.5521850e+00 1.0839577e+00 4.8040018e+00
5.5032196e+00 9.6369966e-01 4.6621238e+00
5.4492400e+00 8.4524051e-01 4.5202863e+00
5.3902464e+00 7.2858026e-01 4.3784893e+00
5.3902464e+00 7.2858026e-01 4.3784893e+00
5.3297155e+00 6.0828608e-01 4.2407737e+00
5.2681426e+00 4.8790560e-01 4.1034696e+00
5.2055275e+00 3.6743884e-01 3.9665770e+00
5.1418703e+00 2.4688579e-01 3.8300959e+00
5.0771709e+00 1.2624646e-01 3.6940263e+00
5.0114295e+00 5.5208400e-03 3.5583682e+00
2.0488000e+00 5.9744044e+00 1.3862296e+01
2.1234575e+00 6.0830421e+00 1.3716786e+01
2.2100845e+00 6.1900217e+00 1.3580839e+01
2.3086811e+00 6.2953432e+00 1.3454454e+01
2.4192472e+00 6.3990066e+00 1.3337632e+01
2.5417830e+00 6.5010118e+00 1.3230373e+01
2.6762882e+00 6.6013589e+00 1.3132677e+01
2.6762882e+00 6.6013589e+00 1.3132677e+01
2.8418863e+00 6.6856928e+00 1.3075113e+01
3.0132336e+00 6.7592306e+00 1.3030443e+01
3.1903300e+00 6.8219724e+00 1.2998670e+01
3.3731755e+00 6.8739181e+00 1.2979791e+01
3.5617702e+00 6.9150678e+00 1.2973807e+01
3.7561140e+00 6.9454214e+00 1.2980719e+01
3.7561140e+00 6.9454214e+00 1.2980719e+01
3.9512835e+00 6.9683429e+00 1.2987925e+01
4.1424371e+00 6.9910067e+00 1.2977355e+01
4.3295748e+00 7.0134129e+00 1.2949007e+01
4.5126966e+00 7.0355615e+00 1.2902882e+01
4.6918025e+00 7.0574525e+00 1.2838980e+01
4.8668925e+00 7.0790858e+00 1.2757301e+01
4.8668925e+00 7.0790858e+00 1.2757301e+01
5.0136082e+00 7.1057543e+00 1.2632300e+01
5.1487663e+00 7.1296187e+00 1.2497388e+01
5.2723667e+00 7.1506789e+00 1.2352565e+01
5.3844095e+00 7.1689349e+00 1.2197831e+01
[...]
POINT_DATA 4361
VECTORS U float
2.2769200e+00 7.3418600e-01 -8.6282500e-03
2.2958956e+00 7.1691689e-01 1.6047056e-03
2.3138089e+00 6.9797922e-01 1.0484922e-02
2.3306600e+00 6.7737300e-01 1.8012400e-02
2.3464489e+00 6.5509822e-01 2.4187139e-02
2.3611756e+00 6.3115489e-01 2.9009139e-02
2.3748400e+00 6.0554300e-01 3.2478400e-02
2.3748400e+00 6.0554300e-01 3.2478400e-02
2.3854244e+00 5.8658078e-01 3.5528289e-02
2.3947178e+00 5.6630044e-01 3.6170522e-02
2.4027200e+00 5.4470200e-01 3.4405100e-02
2.4094311e+00 5.2178544e-01 3.0232022e-02
2.4148511e+00 4.9755078e-01 2.3651289e-02
2.4189800e+00 4.7199800e-01 1.4662900e-02
2.4189800e+00 4.7199800e-01 1.4662900e-02
2.4266944e+00 4.4253011e-01 1.0200661e-02
2.4335644e+00 4.1483111e-01 8.3512711e-03
2.4395900e+00 3.8890100e-01 9.1147300e-03
2.4447711e+00 3.6473978e-01 1.2491038e-02
2.4491078e+00 3.4234744e-01 1.8480194e-02
2.4526000e+00 3.2172400e-01 2.7082200e-02
2.4526000e+00 3.2172400e-01 2.7082200e-02
2.4554900e+00 3.0160211e-01 2.8213800e-02
2.4579433e+00 2.8291711e-01 2.9245967e-02
2.4599600e+00 2.6566900e-01 3.0178700e-02
2.4615400e+00 2.4985778e-01 3.1012000e-02
2.4626833e+00 2.3548344e-01 3.1745867e-02
2.4633900e+00 2.2254600e-01 3.2380300e-02
2.4633900e+00 2.2254600e-01 3.2380300e-02
2.4634300e+00 2.1030078e-01 3.4880478e-02
2.4633933e+00 1.9886611e-01 3.7166511e-02
2.4632800e+00 1.8824200e-01 3.9238400e-02
2.4630900e+00 1.7842844e-01 4.1096144e-02
2.4628233e+00 1.6942544e-01 4.2739744e-02
2.4624800e+00 1.6123300e-01 4.4169200e-02
2.4624800e+00 1.6123300e-01 4.4169200e-02
2.4621333e+00 1.5301689e-01 4.5669778e-02
2.4615100e+00 1.4591889e-01 4.5954544e-02
2.4606100e+00 1.3993900e-01 4.5023500e-02
2.4594333e+00 1.3507722e-01 4.2876644e-02
2.4579800e+00 1.3133356e-01 3.9513978e-02
2.4562500e+00 1.2870800e-01 3.4935500e-02
2.4562500e+00 1.2870800e-01 3.4935500e-02
2.4546100e+00 1.2701444e-01 3.1085300e-02
2.4512200e+00 1.2831611e-01 2.5778133e-02
2.4460800e+00 1.3261300e-01 1.9014000e-02
2.4391900e+00 1.3990511e-01 1.0792900e-02
2.4305500e+00 1.5019244e-01 1.1148333e-03
2.4201600e+00 1.6347500e-01 -1.0020200e-02
2.4201600e+00 1.6347500e-01 -1.0020200e-02
2.4020811e+00 1.9837956e-01 -2.5177800e-02
2.3855578e+00 2.3059389e-01 -3.9131733e-02
2.3705900e+00 2.6011800e-01 -5.1882000e-02
2.3571778e+00 2.8695189e-01 -6.3428600e-02
2.3453211e+00 3.1109556e-01 -7.3771533e-02
2.3350200e+00 3.3254900e-01 -8.2910800e-02
2.3350200e+00 3.3254900e-01 -8.2910800e-02
2.3230267e+00 3.2194456e-01 -7.1395844e-02
2.3096667e+00 3.0820489e-01 -5.6674878e-02
2.2949400e+00 2.9133000e-01 -3.8747900e-02
2.2788467e+00 2.7131989e-01 -1.7614911e-02
2.2613867e+00 2.4817456e-01 6.7240889e-03
2.2425600e+00 2.2189400e-01 3.4269100e-02
2.2425600e+00 2.2189400e-01 3.4269100e-02
2.2205122e+00 2.1450778e-01 5.1845778e-02
2.1972989e+00 2.0754078e-01 6.9120511e-02
2.1729200e+00 2.0099300e-01 8.6093300e-02
2.1473756e+00 1.9486444e-01 1.0276414e-01
2.1206656e+00 1.8915511e-01 1.1913304e-01
2.0927900e+00 1.8386500e-01 1.3520000e-01
2.0927900e+00 1.8386500e-01 1.3520000e-01
2.0640756e+00 1.8272844e-01 1.4793889e-01
2.0336889e+00 1.8137478e-01 1.5955722e-01
2.0016300e+00 1.7980400e-01 1.7005500e-01
1.9678989e+00 1.7801611e-01 1.7943222e-01
1.9324956e+00 1.7601111e-01 1.8768889e-01
1.8954200e+00 1.7378900e-01 1.9482500e-01
1.8954200e+00 1.7378900e-01 1.9482500e-01
1.8591500e+00 1.7101478e-01 2.0010133e-01
1.8224900e+00 1.6769811e-01 2.0328667e-01
1.7854400e+00 1.6383900e-01 2.0438100e-01
1.7480000e+00 1.5943744e-01 2.0338433e-01
1.7101700e+00 1.5449344e-01 2.0029667e-01
1.6719500e+00 1.4900700e-01 1.9511800e-01
1.6719500e+00 1.4900700e-01 1.9511800e-01
1.6343433e+00 1.4247242e-01 1.8853144e-01
1.5978733e+00 1.3481542e-01 1.8177111e-01
1.5625400e+00 1.2603600e-01 1.7483700e-01
1.5283433e+00 1.1613416e-01 1.6772911e-01
1.4952833e+00 1.0510989e-01 1.6044744e-01
1.4633600e+00 9.2963200e-02 1.5299200e-01
1.4633600e+00 9.2963200e-02 1.5299200e-01
1.4312356e+00 8.0659222e-02 1.4500977e-01
1.3991789e+00 6.8553089e-02 1.3647177e-01
1.3671900e+00 5.6644800e-02 1.2737800e-01
1.3352689e+00 4.4934356e-02 1.1772847e-01
1.3034156e+00 3.3421756e-02 1.0752317e-01
1.2716300e+00 2.2107000e-02 9.6762100e-02
1.2716300e+00 2.2107000e-02 9.6762100e-02
1.2385689e+00 1.0364756e-02 8.6009722e-02
1.2040322e+00 -2.0157111e-03 7.5446956e-02
1.1680200e+00 -1.5034400e-02 6.5073800e-02
1.1305322e+00 -2.8691311e-02 5.4890256e-02
1.0915689e+00 -4.2986444e-02 4.4896322e-02
1.0511300e+00 -5.7919800e-02 3.5092000e-02
1.0511300e+00 -5.7919800e-02 3.5092000e-02
1.0086851e+00 -7.2918278e-02 2.5952494e-02
9.6448078e-01 -8.6455844e-02 1.7108004e-02
9.1851700e-01 -9.8532500e-02 8.5585300e-03
8.7079378e-01 -1.0914824e-01 3.0407111e-04
8.2131111e-01 -1.1830308e-01 -7.6553722e-03
7.7006900e-01 -1.2599700e-01 -1.5319800e-02
7.7006900e-01 -1.2599700e-01 -1.5319800e-02
7.1894878e-01 -1.3262989e-01 -2.0463000e-02
6.6873611e-01 -1.3725956e-01 -2.4244833e-02
6.1943100e-01 -1.3988600e-01 -2.6665300e-02
5.7103344e-01 -1.4050922e-01 -2.7724400e-02
5.2354344e-01 -1.3912922e-01 -2.7422133e-02
4.7696100e-01 -1.3574600e-01 -2.5758500e-02
4.7696100e-01 -1.3574600e-01 -2.5758500e-02
4.3358678e-01 -1.2774072e-01 -2.6343611e-02
3.9319878e-01 -1.1906139e-01 -2.6700011e-02
3.5579700e-01 -1.0970800e-01 -2.6827700e-02
3.2138144e-01 -9.9680556e-02 -2.6726678e-02
2.8995211e-01 -8.8979056e-02 -2.6396944e-02
2.6150900e-01 -7.7603500e-02 -2.5838500e-02
2.6150900e-01 -7.7603500e-02 -2.5838500e-02
2.3160111e-01 -6.5803344e-02 -2.3536882e-02
2.0346278e-01 -5.4374444e-02 -2.0948582e-02
1.7709400e-01 -4.3316800e-02 -1.8073600e-02
1.5249478e-01 -3.2630411e-02 -1.4911936e-02
1.2966511e-01 -2.2315278e-02 -1.1463589e-02
1.0860500e-01 -1.2371400e-02 -7.7285600e-03
1.0860500e-01 -1.2371400e-02 -7.7285600e-03
9.0959967e-02 -6.0774944e-03 -4.2563167e-03
7.4244967e-02 -1.2482444e-04 -7.9919333e-04
5.8460000e-02 5.4866100e-03 2.6428100e-03
4.3605067e-02 1.0756809e-02 6.0696933e-03
2.9680167e-02 1.5685772e-02 9.4814567e-03
1.6685300e-02 2.0273500e-02 1.2878100e-02
2.0516900e+00 9.5282000e-01 1.0411300e-01
2.0338533e+00 9.4238778e-01 1.1042333e-01
2.0132700e+00 9.2788311e-01 1.1841133e-01
1.9899400e+00 9.0930600e-01 1.2807700e-01
1.9638633e+00 8.8665644e-01 1.3942033e-01
1.9350400e+00 8.5993444e-01 1.5244133e-01
1.9034700e+00 8.2914000e-01 1.6714000e-01
1.9034700e+00 8.2914000e-01 1.6714000e-01
1.8783800e+00 8.1397522e-01 1.7495222e-01
1.8516033e+00 7.9847656e-01 1.8196689e-01
1.8231400e+00 7.8264400e-01 1.8818400e-01
1.7929900e+00 7.6647756e-01 1.9360356e-01
1.7611533e+00 7.4997722e-01 1.9822556e-01
1.7276300e+00 7.3314300e-01 2.0205000e-01
1.7276300e+00 7.3314300e-01 2.0205000e-01
1.6924111e+00 7.1360756e-01 2.0507933e-01
1.6542578e+00 6.9278056e-01 2.0566333e-01
1.6131700e+00 6.7066200e-01 2.0380200e-01
1.5691478e+00 6.4725189e-01 1.9949533e-01
1.5221911e+00 6.2255022e-01 1.9274333e-01
1.4723000e+00 5.9655700e-01 1.8354600e-01
1.4723000e+00 5.9655700e-01 1.8354600e-01
1.4285500e+00 5.6669678e-01 1.7300256e-01
1.3898433e+00 5.3622444e-01 1.6553689e-01
1.3561800e+00 5.0514000e-01 1.6114900e-01
1.3275600e+00 4.7344344e-01 1.5983889e-01
1.3039833e+00 4.4113478e-01 1.6160656e-01
1.2854500e+00 4.0821400e-01 1.6645200e-01
1.2854500e+00 4.0821400e-01 1.6645200e-01
1.2628189e+00 3.7710644e-01 1.6751033e-01
1.2396022e+00 3.4684544e-01 1.6709833e-01
1.2158000e+00 3.1743100e-01 1.6521600e-01
1.1914122e+00 2.8886311e-01 1.6186333e-01
1.1664389e+00 2.6114178e-01 1.5704033e-01
1.1408800e+00 2.3426700e-01 1.5074700e-01
1.1408800e+00 2.3426700e-01 1.5074700e-01
1.1176429e+00 2.0702133e-01 1.4791800e-01
1.0927196e+00 1.8005867e-01 1.4397767e-01
1.0661100e+00 1.5337900e-01 1.3892600e-01
1.0378142e+00 1.2698233e-01 1.3276300e-01
1.0078322e+00 1.0086867e-01 1.2548867e-01
9.7616400e-01 7.5038000e-02 1.1710300e-01
9.7616400e-01 7.5038000e-02 1.1710300e-01
9.4094833e-01 5.0697767e-02 1.0517839e-01
9.0263167e-01 2.8448400e-02 9.2341989e-02
8.6121400e-01 8.2899000e-03 7.8593800e-02
8.1669533e-01 -9.7777333e-03 6.3933822e-02
7.6907567e-01 -2.5754500e-02 4.8362056e-02
7.1835500e-01 -3.9640400e-02 3.1878500e-02
7.1835500e-01 -3.9640400e-02 3.1878500e-02
6.6160889e-01 -4.9655822e-02 1.6565461e-02
6.0568256e-01 -5.6962822e-02 3.8830444e-03
5.5057600e-01 -6.1561400e-02 -6.1687500e-03
4.9628922e-01 -6.3451556e-02 -1.3589922e-02
4.4282222e-01 -6.2633289e-02 -1.8380472e-02
3.9017500e-01 -5.9106600e-02 -2.0540400e-02
3.9017500e-01 -5.9106600e-02 -2.0540400e-02
3.4344656e-01 -5.2520978e-02 -2.2918511e-02
2.9982756e-01 -4.5329378e-02 -2.4547211e-02
2.5931800e-01 -3.7531800e-02 -2.5426500e-02
2.2191789e-01 -2.9128244e-02 -2.5556378e-02
1.8762722e-01 -2.0118711e-02 -2.4936844e-02
1.5644600e-01 -1.0503200e-02 -2.3567900e-02
1.5644600e-01 -1.0503200e-02 -2.3567900e-02
1.2813731e-01 -6.0600261e-03 -1.8544744e-02
1.0107768e-01 -2.3258524e-03 -1.3171478e-02
7.5267100e-02 6.9932100e-04 -7.4481000e-03
5.0705580e-02 3.0154942e-03 -1.3746111e-03
2.7393117e-02 4.6226672e-03 5.0489889e-03
5.3297100e-03 5.5208400e-03 1.1822700e-02
2.0488000e+00 1.0047000e+00 -5.7487100e-02
2.0727600e+00 1.0102636e+00 -4.3609967e-02
2.0953267e+00 1.0127336e+00 -3.0313433e-02
2.1165000e+00 1.0121100e+00 -1.7597500e-02
2.1362800e+00 1.0083929e+00 -5.4621667e-03
2.1546667e+00 1.0015822e+00 6.0925667e-03
2.1716600e+00 9.9167800e-01 1.7066700e-02
2.1716600e+00 9.9167800e-01 1.7066700e-02
2.1854644e+00 9.7154789e-01 2.3563278e-02
2.1979311e+00 9.4941022e-01 2.6875744e-02
2.2090600e+00 9.2526500e-01 2.7004100e-02
2.2188511e+00 8.9911222e-01 2.3948344e-02
2.2273044e+00 8.7095189e-01 1.7708478e-02
2.2344200e+00 8.4078400e-01 8.2845000e-03
2.2344200e+00 8.4078400e-01 8.2845000e-03
2.2408078e+00 8.0794333e-01 1.2272222e-04
2.2458111e+00 7.7970733e-01 -6.9631444e-03
2.2494300e+00 7.5607600e-01 -1.2973100e-02
2.2516644e+00 7.3704933e-01 -1.7907144e-02
2.2525144e+00 7.2262733e-01 -2.1765278e-02
2.2519800e+00 7.1281000e-01 -2.4547500e-02
2.2519800e+00 7.1281000e-01 -2.4547500e-02
2.2528533e+00 7.1602656e-01 -2.3240417e-02
2.2550400e+00 7.1938156e-01 -2.1394883e-02
2.2585400e+00 7.2287500e-01 -1.9010900e-02
2.2633533e+00 7.2650689e-01 -1.6088467e-02
2.2694800e+00 7.3027722e-01 -1.2627583e-02
2.2769200e+00 7.3418600e-01 -8.6282500e-03
2.0026700e+00 9.8633100e-01 2.1698800e-02
2.0142789e+00 9.8636500e-01 4.2496000e-02
2.0245122e+00 9.8415133e-01 6.0468600e-02
2.0333700e+00 9.7969000e-01 7.5616600e-02
2.0408522e+00 9.7298100e-01 8.7940000e-02
2.0469589e+00 9.6402433e-01 9.7438800e-02
2.0516900e+00 9.5282000e-01 1.0411300e-01
2.3350200e+00 3.3254900e-01 -8.2910800e-02
2.3092233e+00 2.9526778e-01 -7.9957156e-02
2.2823700e+00 2.5919244e-01 -7.5643256e-02
2.2544600e+00 2.2432300e-01 -6.9969100e-02
2.2254933e+00 1.9065944e-01 -6.2934689e-02
2.1954700e+00 1.5820178e-01 -5.4540022e-02
2.1643900e+00 1.2695000e-01 -4.4785100e-02
2.1643900e+00 1.2695000e-01 -4.4785100e-02
2.1470533e+00 1.0788331e-01 -3.9840400e-02
2.1277200e+00 9.0949578e-02 -3.2754100e-02
2.1063900e+00 7.6148800e-02 -2.3526200e-02
2.0830633e+00 6.3480978e-02 -1.2156700e-02
2.0577400e+00 5.2946111e-02 1.3544000e-03
2.0304200e+00 4.4544200e-02 1.7007100e-02
2.0304200e+00 4.4544200e-02 1.7007100e-02
1.9988300e+00 3.4606342e-02 3.1251289e-02
1.9665667e+00 2.5677442e-02 4.3877756e-02
1.9336300e+00 1.7757500e-02 5.4886500e-02
1.9000200e+00 1.0846516e-02 6.4277522e-02
1.8657367e+00 4.9444904e-03 7.2050822e-02
1.8307800e+00 5.1422700e-05 7.8206400e-02
1.8307800e+00 5.1422700e-05 7.8206400e-02
1.7869922e+00 -4.4590874e-03 8.1580756e-02
1.7428056e+00 -8.2127283e-03 8.2782422e-02
1.6982200e+00 -1.1209500e-02 8.1811400e-02
1.6532356e+00 -1.3449403e-02 7.8667689e-02
1.6078522e+00 -1.4932436e-02 7.3351289e-02
1.5620700e+00 -1.5658600e-02 6.5862200e-02
1.5620700e+00 -1.5658600e-02 6.5862200e-02
1.5232811e+00 -1.3552170e-02 6.0166700e-02
1.4853811e+00 -1.0614103e-02 5.4127767e-02
1.4483700e+00 -6.8444000e-03 4.7745400e-02
1.4122478e+00 -2.2430600e-03 4.1019600e-02
1.3770144e+00 3.1899167e-03 3.3950367e-02
1.3426700e+00 9.4545300e-03 2.6537700e-02
1.3426700e+00 9.4545300e-03 2.6537700e-02
1.3079144e+00 1.4408050e-02 1.7616827e-02
1.2729078e+00 1.9835340e-02 8.6494502e-03
1.2376500e+00 2.5736400e-02 -3.6443100e-04
1.2021411e+00 3.2111230e-02 -9.4248164e-03
1.1663811e+00 3.8959830e-02 -1.8531706e-02
1.1303700e+00 4.6282200e-02 -2.7685100e-02
1.1303700e+00 4.6282200e-02 -2.7685100e-02
1.0969756e+00 5.2181500e-02 -3.6172400e-02
1.0613522e+00 5.9311800e-02 -4.3596467e-02
1.0235000e+00 6.7673100e-02 -4.9957300e-02
9.8341889e-01 7.7265400e-02 -5.5254900e-02
9.4110889e-01 8.8088700e-02 -5.9489267e-02
8.9657000e-01 1.0014300e-01 -6.2660400e-02
8.9657000e-01 1.0014300e-01 -6.2660400e-02
8.4596511e-01 1.1552767e-01 -6.3830611e-02
7.9601544e-01 1.2817633e-01 -6.4142644e-02
7.4672100e-01 1.3808900e-01 -6.3596500e-02
6.9808178e-01 1.4526567e-01 -6.2192178e-02
6.5009778e-01 1.4970633e-01 -5.9929678e-02
6.0276900e-01 1.5141100e-01 -5.6809000e-02
6.0276900e-01 1.5141100e-01 -5.6809000e-02
5.5145422e-01 1.5017944e-01 -5.3074622e-02
5.0271889e-01 1.4707711e-01 -4.8447489e-02
4.5656300e-01 1.4210400e-01 -4.2927600e-02
4.1298656e-01 1.3526011e-01 -3.6514956e-02
3.7198956e-01 1.2654544e-01 -2.9209556e-02
3.3357200e-01 1.1596000e-01 -2.1011400e-02
3.3357200e-01 1.1596000e-01 -2.1011400e-02
2.9359300e-01 1.0562631e-01 -7.4524111e-03
2.5553500e-01 9.4771244e-02 5.0318222e-03
2.1939800e-01 8.3394800e-02 1.6441300e-02
1.8518200e-01 7.1496978e-02 2.6776022e-02
1.5288700e-01 5.9077778e-02 3.6035989e-02
1.2251300e-01 4.6137200e-02 4.4221200e-02
1.2251300e-01 4.6137200e-02 4.4221200e-02
1.0746242e-01 3.9486633e-02 3.7739216e-02
9.1442556e-02 3.1392433e-02 3.0942216e-02
7.4453400e-02 2.1854600e-02 2.3830200e-02
5.6494956e-02 1.0873133e-02 1.6403168e-02
3.7567222e-02 -1.5519667e-03 8.6611189e-03
1.7670200e-02 -1.5420700e-02 6.0405400e-04
7.2510600e+00 4.7061800e-01 1.3045200e-01
7.2359811e+00 4.3071344e-01 1.4217767e-01
7.2199744e+00 3.9239811e-01 1.5362633e-01
7.2030400e+00 3.5567200e-01 1.6479800e-01
7.1851778e+00 3.2053511e-01 1.7569267e-01
7.1663878e+00 2.8698744e-01 1.8631033e-01
7.1466700e+00 2.5502900e-01 1.9665100e-01
7.1466700e+00 2.5502900e-01 1.9665100e-01
7.1288678e+00 2.3278767e-01 2.0450467e-01
7.1102711e+00 2.1633333e-01 2.1161367e-01
7.0908800e+00 2.0566600e-01 2.1797800e-01
7.0706944e+00 2.0078567e-01 2.2359767e-01
7.0497144e+00 2.0169233e-01 2.2847267e-01
7.0279400e+00 2.0838600e-01 2.3260300e-01
7.0279400e+00 2.0838600e-01 2.3260300e-01
7.0070667e+00 2.1400989e-01 2.3525600e-01
6.9844433e+00 2.2050256e-01 2.3803767e-01
6.9600700e+00 2.2786400e-01 2.4094800e-01
6.9339467e+00 2.3609422e-01 2.4398700e-01
6.9060733e+00 2.4519322e-01 2.4715467e-01
6.8764500e+00 2.5516100e-01 2.5045100e-01
6.8764500e+00 2.5516100e-01 2.5045100e-01
6.8364656e+00 2.6759311e-01 2.5733511e-01
6.7981822e+00 2.7386444e-01 2.6400344e-01
6.7616000e+00 2.7397500e-01 2.7045600e-01
6.7267189e+00 2.6792478e-01 2.7669278e-01
6.6935389e+00 2.5571378e-01 2.8271378e-01
6.6620600e+00 2.3734200e-01 2.8851900e-01
6.6620600e+00 2.3734200e-01 2.8851900e-01
6.6368522e+00 2.1568222e-01 2.8838667e-01
6.6129689e+00 1.9354056e-01 2.8579667e-01
6.5904100e+00 1.7091700e-01 2.8074900e-01
6.5691756e+00 1.4781156e-01 2.7324367e-01
6.5492656e+00 1.2422422e-01 2.6328067e-01
6.5306800e+00 1.0015500e-01 2.5086000e-01
6.5306800e+00 1.0015500e-01 2.5086000e-01
6.5034878e+00 1.2425978e-01 2.5333744e-01
6.4736978e+00 1.4710578e-01 2.5449378e-01
6.4413100e+00 1.6869300e-01 2.5432900e-01
6.4063244e+00 1.8902144e-01 2.5284311e-01
6.3687411e+00 2.0809111e-01 2.5003611e-01
6.3285600e+00 2.2590200e-01 2.4590800e-01
6.3285600e+00 2.2590200e-01 2.4590800e-01
6.2889400e+00 2.3807711e-01 2.3518278e-01
6.2515467e+00 2.4516278e-01 2.2282111e-01
6.2163800e+00 2.4715900e-01 2.0882300e-01
6.1834400e+00 2.4406578e-01 1.9318844e-01
6.1527267e+00 2.3588311e-01 1.7591744e-01
6.1242400e+00 2.2261100e-01 1.5701000e-01
6.1242400e+00 2.2261100e-01 1.5701000e-01
6.0986467e+00 2.0318656e-01 1.4440556e-01
6.0709700e+00 1.8338389e-01 1.3094256e-01
6.0412100e+00 1.6320300e-01 1.1662100e-01
6.0093667e+00 1.4264389e-01 1.0144089e-01
5.9754400e+00 1.2170656e-01 8.5402222e-02
5.9394300e+00 1.0039100e-01 6.8505000e-02
5.9394300e+00 1.0039100e-01 6.8505000e-02
5.8957489e+00 8.1189422e-02 4.7576156e-02
5.8492422e+00 6.7726722e-02 2.8810589e-02
5.7999100e+00 6.0002900e-02 1.2208300e-02
5.7477522e+00 5.8017956e-02 -2.2307111e-03
5.6927689e+00 6.1771889e-02 -1.4506444e-02
5.6349600e+00 7.1264700e-02 -2.4618900e-02
5.6349600e+00 7.1264700e-02 -2.4618900e-02
5.5790844e+00 9.1009389e-02 -2.7868211e-02
5.5282211e+00 1.1037482e-01 -3.0323411e-02
5.4823700e+00 1.2936100e-01 -3.1984500e-02
5.4415311e+00 1.4796792e-01 -3.2851478e-02
5.4057044e+00 1.6619559e-01 -3.2924344e-02
5.3748900e+00 1.8404400e-01 -3.2203100e-02
5.4829600e+00 2.3765000e-01 -6.7375000e-02
5.4719511e+00 2.2333233e-01 -6.4309211e-02
5.4581411e+00 2.1116800e-01 -6.0124944e-02
5.4415300e+00 2.0115700e-01 -5.4822200e-02
5.4221178e+00 1.9329933e-01 -4.8400978e-02
5.3999044e+00 1.8759500e-01 -4.0861278e-02
5.3748900e+00 1.8404400e-01 -3.2203100e-02
6.9051600e+00 5.0959600e-01 1.4137000e-01
6.8827456e+00 4.9388389e-01 1.2707646e-01
6.8599222e+00 4.7769956e-01 1.1175616e-01
6.8366900e+00 4.6104300e-01 9.5409100e-02
6.8130489e+00 4.4391422e-01 7.8035289e-02
6.7889989e+00 4.2631322e-01 5.9634722e-02
6.7645400e+00 4.0824000e-01 4.0207400e-02
6.7645400e+00 4.0824000e-01 4.0207400e-02
6.7401500e+00 3.8510578e-01 2.0067153e-02
6.7163767e+00 3.6320044e-01 5.0394000e-03
6.6932200e+00 3.4252400e-01 -4.8758600e-03
6.6706800e+00 3.2307644e-01 -9.6786267e-03
6.6487567e+00 3.0485778e-01 -9.3689000e-03
6.6274500e+00 2.8786800e-01 -3.9466800e-03
6.6274500e+00 2.8786800e-01 -3.9466800e-03
6.5961411e+00 2.8273722e-01 1.9914178e-02
6.5629244e+00 2.7979722e-01 4.3728471e-02
6.5278000e+00 2.7904800e-01 6.7496200e-02
6.4907678e+00 2.8048956e-01 9.1217364e-02
6.4518278e+00 2.8412189e-01 1.1489196e-01
6.4109800e+00 2.8994500e-01 1.3852000e-01
6.4109800e+00 2.8994500e-01 1.3852000e-01
6.3719856e+00 2.9804711e-01 1.6270044e-01
6.3311056e+00 3.0391544e-01 1.8648011e-01
6.2883400e+00 3.0755000e-01 2.0985900e-01
6.2436889e+00 3.0895078e-01 2.3283711e-01
6.1971522e+00 3.0811778e-01 2.5541444e-01
6.1487300e+00 3.0505100e-01 2.7759100e-01
6.1487300e+00 3.0505100e-01 2.7759100e-01
6.0948444e+00 2.8207844e-01 2.6750536e-01
6.0375044e+00 2.6400878e-01 2.4815202e-01
5.9767100e+00 2.5084200e-01 2.1953100e-01
5.9124611e+00 2.4257811e-01 1.8164229e-01
5.8447578e+00 2.3921711e-01 1.3448589e-01
5.7736000e+00 2.4075900e-01 7.8061800e-02
5.7736000e+00 2.4075900e-01 7.8061800e-02
5.7111211e+00 2.4521444e-01 3.6998556e-02
5.6542578e+00 2.4768044e-01 2.6648222e-03
5.6030100e+00 2.4815700e-01 -2.4939400e-02
5.5573778e+00 2.4664411e-01 -4.5814111e-02
5.5173611e+00 2.4314178e-01 -5.9959311e-02
5.4829600e+00 2.3765000e-01 -6.7375000e-02
4.0378500e+00 4.3804700e-01 -7.1221000e-02
4.0747656e+00 4.0656200e-01 -6.3607989e-02
4.1183289e+00 3.7618767e-01 -5.8975822e-02
4.1685400e+00 3.4692400e-01 -5.7324500e-02
4.2253989e+00 3.1877100e-01 -5.8654022e-02
4.2889056e+00 2.9172867e-01 -6.2964389e-02
4.3590600e+00 2.6579700e-01 -7.0255600e-02
4.3590600e+00 2.6579700e-01 -7.0255600e-02
4.4335000e+00 2.6055722e-01 -7.0497411e-02
4.5078200e+00 2.6203556e-01 -6.8831711e-02
4.5820200e+00 2.7023200e-01 -6.5258500e-02
4.6561000e+00 2.8514656e-01 -5.9777778e-02
4.7300600e+00 3.0677922e-01 -5.2389544e-02
4.8039000e+00 3.3513000e-01 -4.3093800e-02
4.8039000e+00 3.3513000e-01 -4.3093800e-02
4.8714978e+00 3.6413600e-01 -3.9096267e-02
4.9388911e+00 3.8653900e-01 -3.6121567e-02
5.0060800e+00 4.0233900e-01 -3.4169700e-02
5.0730644e+00 4.1153600e-01 -3.3240667e-02
5.1398444e+00 4.1413000e-01 -3.3334467e-02
5.2064200e+00 4.1012100e-01 -3.4451100e-02
5.2064200e+00 4.1012100e-01 -3.4451100e-02
5.2673378e+00 3.8517556e-01 -3.9059500e-02
5.3223244e+00 3.5871022e-01 -4.4019467e-02
5.3713800e+00 3.3072500e-01 -4.9331000e-02
5.4145044e+00 3.0121989e-01 -5.4994100e-02
5.4516978e+00 2.7019489e-01 -6.1008767e-02
5.4829600e+00 2.3765000e-01 -6.7375000e-02