# vtk DataFile Version 2.0
test
ASCII
DATASET POLYDATA
POINTS 4361 float
3.7733532e+00 6.6160155e+00 1.1862667e+01
3.8745618e+00 6.6841070e+00 1.1731721e+01
3.9782064e+00 6.7521426e+00 1.1602845e+01
4.0842870e+00 6.8201221e+00 1.1476038e+01
4.1928036e+00 6.8880455e+00 1.1351303e+01
4.3037562e+00 6.9559130e+00 1.1228637e+01
4.4171448e+00 7.0237244e+00 1.1108041e+01
4.4171448e+00 7.0237244e+00 1.1108041e+01
4.5358553e+00 7.0938511e+00 1.0991558e+01
4.6614575e+00 7.1631038e+00 1.0884698e+01
4.7939515e+00 7.2314825e+00 1.0787461e+01
4.9333371e+00 7.2989872e+00 1.0699846e+01
5.0796145e+00 7.3656179e+00 1.0621854e+01
5.2327836e+00 7.4313746e+00 1.0553486e+01
5.2327836e+00 7.4313746e+00 1.0553486e+01
5.3949528e+00 7.4937421e+00 1.0504450e+01
5.5595853e+00 7.5526757e+00 1.0468460e+01
5.7266810e+00 7.6081755e+00 1.0445516e+01
5.8962401e+00 7.6602416e+00 1.0435617e+01
6.0682624e+00 7.7088738e+00 1.0438764e+01
6.2427481e+00 7.7540723e+00 1.0454957e+01
6.2427481e+00 7.7540723e+00 1.0454957e+01
6.4157249e+00 7.7947775e+00 1.0478031e+01
6.5886096e+00 7.8324552e+00 1.0504868e+01
6.7614022e+00 7.8671055e+00 1.0535469e+01
6.9341027e+00 7.8987283e+00 1.0569833e+01
7.1067112e+00 7.9273236e+00 1.0607961e+01
7.2792276e+00 7.9528915e+00 1.0649852e+01
7.2792276e+00 7.9528915e+00 1.0649852e+01
7.4520252e+00 7.9760193e+00 1.0691915e+01
7.6257741e+00 7.9965880e+00 1.0730029e+01
7.8004742e+00 8.0145977e+00 1.0764195e+01
7.9761257e+00 8.0300483e+00 1.0794413e+01
8.1527284e+00 8.0429399e+00 1.0820682e+01
8.3302823e+00 8.0532725e+00 1.0843003e+01
8.3302823e+00 8.0532725e+00 1.0843003e+01
8.5105865e+00 8.0606995e+00 1.0856514e+01
8.6892932e+00 8.0653906e+00 1.0856566e+01
8.8664024e+00 8.0673458e+00 1.0843159e+01
9.0419140e+00 8.0665650e+00 1.0816293e+01
9.2158282e+00 8.0630484e+00 1.0775968e+01
9.3881448e+00 8.0567957e+00 1.0722184e+01
9.3881448e+00 8.0567957e+00 1.0722184e+01
9.5531096e+00 8.0477511e+00 1.0649778e+01
9.7107100e+00 8.0374267e+00 1.0566543e+01
9.8609460e+00 8.0258226e+00 1.0472479e+01
1.0003818e+01 8.0129388e+00 1.0367586e+01
1.0139325e+01 7.9987752e+00 1.0251863e+01
1.0267468e+01 7.9833318e+00 1.0125312e+01
1.0267468e+01 7.9833318e+00 1.0125312e+01
1.0387197e+01 7.9712910e+00 9.9927174e+00
1.0504546e+01 7.9585010e+00 9.8582097e+00
1.0619515e+01 7.9449618e+00 9.7217885e+00
1.0732103e+01 7.9306733e+00 9.5834537e+00
1.0842310e+01 7.9156357e+00 9.4432053e+00
1.0950137e+01 7.8998488e+00 9.3010434e+00
1.0950137e+01 7.8998488e+00 9.3010434e+00
1.0852389e+01 7.8343339e+00 9.1596765e+00
1.0755609e+01 7.7676689e+00 9.0182067e+00
1.0659799e+01 7.6998537e+00 8.8766340e+00
1.0564958e+01 7.6308883e+00 8.7349584e+00
1.0471086e+01 7.5607728e+00 8.5931799e+00
1.0378183e+01 7.4895071e+00 8.4512986e+00
1.0378183e+01 7.4895071e+00 8.4512986e+00
1.0287421e+01 7.4209487e+00 8.3064048e+00
1.0201186e+01 7.3510741e+00 8.1597674e+00
1.0119476e+01 7.2798835e+00 8.0113864e+00
1.0042291e+01 7.2073768e+00 7.8612618e+00
9.9696329e+00 7.1335540e+00 7.7093936e+00
9.9015002e+00 7.0584151e+00 7.5557818e+00
9.9015002e+00 7.0584151e+00 7.5557818e+00
9.8404693e+00 6.9813826e+00 7.3993615e+00
9.7883524e+00 6.9022611e+00 7.2418954e+00
9.7451495e+00 6.8210506e+00 7.0833835e+00
9.7108607e+00 6.7377511e+00 6.9238257e+00
9.6854858e+00 6.6523626e+00 6.7632221e+00
9.6690251e+00 6.5648851e+00 6.6015726e+00
9.6690251e+00 6.5648851e+00 6.6015726e+00
9.6646245e+00 6.4753893e+00 6.4401500e+00
9.6705074e+00 6.3847280e+00 6.2807764e+00
9.6866738e+00 6.2929014e+00 6.1234520e+00
9.7131237e+00 6.1999094e+00 5.9681767e+00
9.7498570e+00 6.1057519e+00 5.8149506e+00
9.7968739e+00 6.0104291e+00 5.6637735e+00
9.7968739e+00 6.0104291e+00 5.6637735e+00
9.8520791e+00 5.9147823e+00 5.5165652e+00
9.9128416e+00 5.8185562e+00 5.3725149e+00
9.9791613e+00 5.7217509e+00 5.2316226e+00
1.0051038e+01 5.6243662e+00 5.0938883e+00
1.0128472e+01 5.5264024e+00 4.9593119e+00
1.0211464e+01 5.4278592e+00 4.8278936e+00
1.0211464e+01 5.4278592e+00 4.8278936e+00
1.0297406e+01 5.3290732e+00 4.6990978e+00
1.0384902e+01 5.2292780e+00 4.5722462e+00
1.0473950e+01 5.1284736e+00 4.4473387e+00
1.0564551e+01 5.0266601e+00 4.3243754e+00
1.0656705e+01 4.9238375e+00 4.2033561e+00
1.0750412e+01 4.8200057e+00 4.0842810e+00
1.0750412e+01 4.8200057e+00 4.0842810e+00
1.0843870e+01 4.7143584e+00 3.9666774e+00
1.0935543e+01 4.6065015e+00 3.8497608e+00
1.1025432e+01 4.4964351e+00 3.7335312e+00
1.1113538e+01 4.3841591e+00 3.6179888e+00
1.1199859e+01 4.2696734e+00 3.5031333e+00
1.1284395e+01 4.1529783e+00 3.3889650e+00
1.1284395e+01 4.1529783e+00 3.3889650e+00
1.1365462e+01 4.0334516e+00 3.2746431e+00
1.1440542e+01 3.9108040e+00 3.1603514e+00
1.1509634e+01 3.7850353e+00 3.0460897e+00
1.1572738e+01 3.6561456e+00 2.9318582e+00
1.1629854e+01 3.5241349e+00 2.8176567e+00
1.1680983e+01 3.3890032e+00 2.7034853e+00
1.1680983e+01 3.3890032e+00 2.7034853e+00
1.1723963e+01 3.2498430e+00 2.5896859e+00
1.1756856e+01 3.1086947e+00 2.4768348e+00
1.1779662e+01 2.9655584e+00 2.3649319e+00
1.1792380e+01 2.8204339e+00 2.2539773e+00
1.1795011e+01 2.6733215e+00 2.1439708e+00
1.1787554e+01 2.5242209e+00 2.0349126e+00
1.1787554e+01 2.5242209e+00 2.0349126e+00
1.1767762e+01 2.3755621e+00 1.9271145e+00
1.1739263e+01 2.2277467e+00 1.8215660e+00
1.1702057e+01 2.0807750e+00 1.7182669e+00
1.1656143e+01 1.9346467e+00 1.6172174e+00
1.1601522e+01 1.7893620e+00 1.5184174e+00
1.1538194e+01 1.6449208e+00 1.4218670e+00
1.1538194e+01 1.6449208e+00 1.4218670e+00
1.1467760e+01 1.5026613e+00 1.3280608e+00
1.1393066e+01 1.3616756e+00 1.2361275e+00
1.1314112e+01 1.2219637e+00 1.1460672e+00
1.1230899e+01 1.0835257e+00 1.0578798e+00
1.1143426e+01 9.4636159e-01 9.7156543e-01
1.1051694e+01 8.1047131e-01 8.8712399e-01
1.1051694e+01 8.1047131e-01 8.8712399e-01
1.0958331e+01 6.7489849e-01 8.0422772e-01
1.0863911e+01 5.3972539e-01 7.2190881e-01
1.0768435e+01 4.0495200e-01 6.4016724e-01
1.0671902e+01 2.7057833e-01 5.5900301e-01
1.0574312e+01 1.3660437e-01 4.7841614e-01
1.0475665e+01 3.0301200e-03 3.9840661e-01
1.6355290e+00 5.4224741e+00 1.1676336e+01
1.6088823e+00 5.3842574e+00 1.1489991e+01
1.5839789e+00 5.3445776e+00 1.1303773e+01
1.5608188e+00 5.3034345e+00 1.1117681e+01
1.5394020e+00 5.2608283e+00 1.0931717e+01
1.5197285e+00 5.2167589e+00 1.0745879e+01
1.5017982e+00 5.1712263e+00 1.0560168e+01
1.5017982e+00 5.1712263e+00 1.0560168e+01
1.4894877e+00 5.1277983e+00 1.0372918e+01
1.4847918e+00 5.0823719e+00 1.0186516e+01
1.4877106e+00 5.0349471e+00 1.0000964e+01
1.4982440e+00 4.9855238e+00 9.8162599e+00
1.5163920e+00 4.9341020e+00 9.6324049e+00
1.5421546e+00 4.8806819e+00 9.4493987e+00
1.5421546e+00 4.8806819e+00 9.4493987e+00
1.5811122e+00 4.8235772e+00 9.2687971e+00
1.6312525e+00 4.7639059e+00 9.0937380e+00
1.6925756e+00 4.7016680e+00 8.9242216e+00
1.7650814e+00 4.6368634e+00 8.7602477e+00
1.8487699e+00 4.5694923e+00 8.6018164e+00
1.9436412e+00 4.4995545e+00 8.4489276e+00
1.9436412e+00 4.4995545e+00 8.4489276e+00
2.0503253e+00 4.4274156e+00 8.3057506e+00
2.1640998e+00 4.3539649e+00 8.1704391e+00
2.2849646e+00 4.2792023e+00 8.0429929e+00
2.4129198e+00 4.2031279e+00 7.9234120e+00
2.5479653e+00 4.1257416e+00 7.8116966e+00
2.6901013e+00 4.0470435e+00 7.7078465e+00
2.6901013e+00 4.0470435e+00 7.7078465e+00
2.8336882e+00 3.9678440e+00 7.6085175e+00
2.9783005e+00 3.8871954e+00 7.5121323e+00
3.1239382e+00 3.8050979e+00 7.4186909e+00
3.2706013e+00 3.7215513e+00 7.3281933e+00
3.4182897e+00 3.6365558e+00 7.2406395e+00
3.5670035e+00 3.5501113e+00 7.1560295e+00
3.5670035e+00 3.5501113e+00 7.1560295e+00
3.7158541e+00 3.4617030e+00 7.0734993e+00
3.8622763e+00 3.3705680e+00 6.9899641e+00
4.0062702e+00 3.2767062e+00 6.9054241e+00
4.1478358e+00 3.1801176e+00 6.8198791e+00
4.2869730e+00 3.0808023e+00 6.7333292e+00
4.4236819e+00 2.9787602e+00 6.6457743e+00
4.4236819e+00 2.9787602e+00 6.6457743e+00
4.5564406e+00 2.8731154e+00 6.5546686e+00
4.6811499e+00 2.7636502e+00 6.4590002e+00
4.7978098e+00 2.6503647e+00 6.3587692e+00
4.9064203e+00 2.5332588e+00 6.2539755e+00
5.0069814e+00 2.4123325e+00 6.1446193e+00
5.0994932e+00 2.2875858e+00 6.0307004e+00
5.0994932e+00 2.2875858e+00 6.0307004e+00
5.1777031e+00 2.1583693e+00 5.9098976e+00
5.2430616e+00 2.0282906e+00 5.7853753e+00
5.2955688e+00 1.8973497e+00 5.6571335e+00
5.3352246e+00 1.7655468e+00 5.5251723e+00
5.3620291e+00 1.6328817e+00 5.3894916e+00
5.3759822e+00 1.4993545e+00 5.2500913e+00
5.3759822e+00 1.4993545e+00 5.2500913e+00
5.3776235e+00 1.3684896e+00 5.1089055e+00
5.3716958e+00 1.2390198e+00 4.9673270e+00
5.3581990e+00 1.1109451e+00 4.8253560e+00
5.3371333e+00 9.8426548e-01 4.6829924e+00
5.3084986e+00 8.5898093e-01 4.5402362e+00
5.2722949e+00 7.3509145e-01 4.3970874e+00
5.2722949e+00 7.3509145e-01 4.3970874e+00
5.2327176e+00 6.1157547e-01 4.2553461e+00
5.1912650e+00 4.8851028e-01 4.1137307e+00
5.1479370e+00 3.6589588e-01 3.9722413e+00
5.1027337e+00 2.4373229e-01 3.8308779e+00
5.0556550e+00 1.2201950e-01 3.6896405e+00
5.0067010e+00 7.5749900e-04 3.5485292e+00
4.1759100e-01 5.2023364e+00 1.3913951e+01
4.7409712e-01 5.3064486e+00 1.3757324e+01
5.4369281e-01 5.4111995e+00 1.3610709e+01
6.2637807e-01 5.5165892e+00 1.3474107e+01
7.2215289e-01 5.6226177e+00 1.3347518e+01
8.3101728e-01 5.7292849e+00 1.3230941e+01
9.5297124e-01 5.8365909e+00 1.3124378e+01
9.5297124e-01 5.8365909e+00 1.3124378e+01
1.1086569e+00 5.9357038e+00 1.3061527e+01
1.2711421e+00 6.0255076e+00 1.3014027e+01
1.4404270e+00 6.1060024e+00 1.2981877e+01
1.6165114e+00 6.1771881e+00 1.2965079e+01
1.7993954e+00 6.2390648e+00 1.2963631e+01
1.9890790e+00 6.2916324e+00 1.2977535e+01
1.9890790e+00 6.2916324e+00 1.2977535e+01
2.1801628e+00 6.3389021e+00 1.2990788e+01
2.3681254e+00 6.3823113e+00 1.2985359e+01
2.5529668e+00 6.4218599e+00 1.2961247e+01
2.7346869e+00 6.4575481e+00 1.2918451e+01
2.9132858e+00 6.4893757e+00 1.2856973e+01
3.0887635e+00 6.5173428e+00 1.2776812e+01
3.0887635e+00 6.5173428e+00 1.2776812e+01
3.2340659e+00 6.5404915e+00 1.2649854e+01
3.3668866e+00 6.5609588e+00 1.2512737e+01
3.4872257e+00 6.5787449e+00 1.2365459e+01
3.5950832e+00 6.5938497e+00 1.2208022e+01
[...]
POINT_DATA 4361
VECTORS U float
4.7645100e-01 1.5316700e-01 -4.5902400e-03
4.8182400e-01 1.4976244e-01 -1.8426433e-03
4.8699767e-01 1.4597911e-01 6.5581000e-04
4.9197200e-01 1.4181700e-01 2.9051200e-03
4.9674700e-01 1.3727611e-01 4.9052867e-03
5.0132267e-01 1.3235644e-01 6.6563100e-03
5.0569900e-01 1.2705800e-01 8.1581900e-03
5.0569900e-01 1.2705800e-01 8.1581900e-03
5.0921967e-01 1.2287694e-01 9.5504078e-03
5.1244167e-01 1.1828961e-01 1.0440011e-02
5.1536500e-01 1.1329600e-01 1.0827000e-02
5.1798967e-01 1.0789611e-01 1.0711374e-02
5.2031567e-01 1.0208994e-01 1.0093134e-02
5.2234300e-01 9.5877500e-02 8.9722800e-03
5.2234300e-01 9.5877500e-02 8.9722800e-03
5.2487144e-01 8.8976344e-02 8.6386500e-03
5.2711678e-01 8.2504344e-02 8.5777533e-03
5.2907900e-01 7.6461500e-02 8.7895900e-03
5.3075811e-01 7.0847811e-02 9.2741600e-03
5.3215411e-01 6.5663278e-02 1.0031463e-02
5.3326700e-01 6.0907900e-02 1.1061500e-02
5.3326700e-01 6.0907900e-02 1.1061500e-02
5.3429478e-01 5.6265844e-02 1.0707122e-02
5.3517511e-01 5.1988311e-02 1.0440656e-02
5.3590800e-01 4.8075300e-02 1.0262100e-02
5.3649344e-01 4.4526811e-02 1.0171456e-02
5.3693144e-01 4.1342844e-02 1.0168722e-02
5.3722200e-01 3.8523400e-02 1.0253900e-02
5.3722200e-01 3.8523400e-02 1.0253900e-02
5.3734311e-01 3.5886822e-02 1.0671122e-02
5.3741444e-01 3.3447556e-02 1.1191989e-02
5.3743600e-01 3.1205600e-02 1.1816500e-02
5.3740778e-01 2.9160956e-02 1.2544656e-02
5.3732978e-01 2.7313622e-02 1.3376456e-02
5.3720200e-01 2.5663600e-02 1.4311900e-02
5.3720200e-01 2.5663600e-02 1.4311900e-02
5.3711833e-01 2.3964889e-02 1.5160122e-02
5.3700200e-01 2.2544056e-02 1.5743322e-02
5.3685300e-01 2.1401100e-02 1.6061500e-02
5.3667133e-01 2.0536022e-02 1.6114656e-02
5.3645700e-01 1.9948822e-02 1.5902789e-02
5.3621000e-01 1.9639500e-02 1.5425900e-02
5.3621000e-01 1.9639500e-02 1.5425900e-02
5.3610389e-01 1.9693422e-02 1.5231577e-02
5.3546356e-01 2.0096556e-02 1.4461943e-02
5.3428900e-01 2.0848900e-02 1.3117000e-02
5.3258022e-01 2.1950456e-02 1.1196747e-02
5.3033722e-01 2.3401222e-02 8.7011833e-03
5.2756000e-01 2.5201200e-02 5.6303100e-03
5.2756000e-01 2.5201200e-02 5.6303100e-03
5.2267822e-01 3.0837067e-02 6.9232778e-04
5.1805522e-01 3.6023333e-02 -3.8413289e-03
5.1369100e-01 4.0760000e-02 -7.9706600e-03
5.0958556e-01 4.5047067e-02 -1.1695666e-02
5.0573889e-01 4.8884533e-02 -1.5016346e-02
5.0215100e-01 5.2272400e-02 -1.7932700e-02
5.0215100e-01 5.2272400e-02 -1.7932700e-02
4.9926444e-01 5.0405444e-02 -1.5059734e-02
4.9600444e-01 4.7902944e-02 -1.1680488e-02
4.9237100e-01 4.4764900e-02 -7.7949600e-03
4.8836411e-01 4.0991311e-02 -3.4031511e-03
4.8398378e-01 3.6582178e-02 1.4949389e-03
4.7923000e-01 3.1537500e-02 6.8993100e-03
4.7923000e-01 3.1537500e-02 6.8993100e-03
4.7410167e-01 3.0251044e-02 1.0627506e-02
4.6873067e-01 2.9207144e-02 1.4170936e-02
4.6311700e-01 2.8405800e-02 1.7529600e-02
4.5726067e-01 2.7847011e-02 2.0703499e-02
4.5116167e-01 2.7530778e-02 2.3692632e-02
4.4482000e-01 2.7457100e-02 2.6497000e-02
4.4482000e-01 2.7457100e-02 2.6497000e-02
4.3850633e-01 2.7775333e-02 2.8774222e-02
4.3180667e-01 2.8044667e-02 3.0754289e-02
4.2472100e-01 2.8265100e-02 3.2437200e-02
4.1724933e-01 2.8436633e-02 3.3822956e-02
4.0939167e-01 2.8559267e-02 3.4911556e-02
4.0114800e-01 2.8633000e-02 3.5703000e-02
4.0114800e-01 2.8633000e-02 3.5703000e-02
3.9258933e-01 2.8598822e-02 3.5981744e-02
3.8443500e-01 2.8376789e-02 3.5922711e-02
3.7668500e-01 2.7966900e-02 3.5525900e-02
3.6933933e-01 2.7369156e-02 3.4791311e-02
3.6239800e-01 2.6583556e-02 3.3718944e-02
3.5586100e-01 2.5610100e-02 3.2308800e-02
3.5586100e-01 2.5610100e-02 3.2308800e-02
3.4936856e-01 2.4415278e-02 3.0790111e-02
3.4306156e-01 2.3034378e-02 2.9251978e-02
3.3694000e-01 2.1467400e-02 2.7694400e-02
3.3100389e-01 1.9714344e-02 2.6117378e-02
3.2525322e-01 1.7775211e-02 2.4520911e-02
3.1968800e-01 1.5650000e-02 2.2905000e-02
3.1968800e-01 1.5650000e-02 2.2905000e-02
3.1420733e-01 1.3704420e-02 2.1101389e-02
3.0876567e-01 1.1758013e-02 1.9246089e-02
3.0336300e-01 9.8107800e-03 1.7339100e-02
2.9799933e-01 7.8627200e-03 1.5380422e-02
2.9267467e-01 5.9138333e-03 1.3370056e-02
2.8738900e-01 3.9641200e-03 1.1308000e-02
2.8738900e-01 3.9641200e-03 1.1308000e-02
2.8185778e-01 1.6454500e-03 9.4451321e-03
2.7606411e-01 -7.7889333e-04 7.5278688e-03
2.7000800e-01 -3.3089100e-03 5.5562100e-03
2.6368944e-01 -5.9446000e-03 3.5301558e-03
2.5710844e-01 -8.6859633e-03 1.4497061e-03
2.5026500e-01 -1.1533000e-02 -6.8513900e-04
2.5026500e-01 -1.1533000e-02 -6.8513900e-04
2.4282644e-01 -1.4378356e-02 -3.0265161e-03
2.3478111e-01 -1.7158389e-02 -5.3086464e-03
2.2612900e-01 -1.9873100e-02 -7.5315300e-03
2.1687011e-01 -2.2522489e-02 -9.6951668e-03
2.0700444e-01 -2.5106556e-02 -1.1799557e-02
1.9653200e-01 -2.7625300e-02 -1.3844700e-02
1.9653200e-01 -2.7625300e-02 -1.3844700e-02
1.8606478e-01 -3.0138678e-02 -1.5078578e-02
1.7539811e-01 -3.2176044e-02 -1.6004311e-02
1.6453200e-01 -3.3737400e-02 -1.6621900e-02
1.5346644e-01 -3.4822744e-02 -1.6931344e-02
1.4220144e-01 -3.5432078e-02 -1.6932644e-02
1.3073700e-01 -3.5565400e-02 -1.6625800e-02
1.3073700e-01 -3.5565400e-02 -1.6625800e-02
1.1931952e-01 -3.4314844e-02 -1.6828222e-02
1.0849862e-01 -3.2729278e-02 -1.6876856e-02
9.8274300e-02 -3.0808700e-02 -1.6771700e-02
8.8646556e-02 -2.8553111e-02 -1.6512756e-02
7.9615389e-02 -2.5962511e-02 -1.6100022e-02
7.1180800e-02 -2.3036900e-02 -1.5533500e-02
7.1180800e-02 -2.3036900e-02 -1.5533500e-02
6.2714867e-02 -1.9920582e-02 -1.4763124e-02
5.4758233e-02 -1.6891049e-02 -1.3852791e-02
4.7310900e-02 -1.3948300e-02 -1.2802500e-02
4.0372867e-02 -1.1092336e-02 -1.1612251e-02
3.3944133e-02 -8.3231556e-03 -1.0282044e-02
2.8024700e-02 -5.6407600e-03 -8.8118800e-03
2.8024700e-02 -5.6407600e-03 -8.8118800e-03
2.2990330e-02 -3.8391578e-03 -7.0032144e-03
1.8241663e-02 -2.1801378e-03 -5.2020378e-03
1.3778700e-02 -6.6370000e-04 -3.4083500e-03
9.6014400e-03 7.1015556e-04 -1.6221511e-03
5.7098833e-03 1.9414289e-03 1.5655889e-04
2.1040300e-03 3.0301200e-03 1.9277800e-03
4.1740900e-01 2.1096200e-01 3.1780700e-02
4.1334922e-01 2.0897656e-01 3.2956656e-02
4.0873256e-01 2.0611422e-01 3.4339989e-02
4.0355900e-01 2.0237500e-01 3.5930700e-02
3.9782856e-01 1.9775889e-01 3.7728789e-02
3.9154122e-01 1.9226589e-01 3.9734256e-02
3.8469700e-01 1.8589600e-01 4.1947100e-02
3.8469700e-01 1.8589600e-01 4.1947100e-02
3.7898033e-01 1.8283522e-01 4.3224389e-02
3.7291667e-01 1.7962456e-01 4.4295389e-02
3.6650600e-01 1.7626400e-01 4.5160100e-02
3.5974833e-01 1.7275356e-01 4.5818522e-02
3.5264367e-01 1.6909322e-01 4.6270656e-02
3.4519200e-01 1.6528300e-01 4.6516500e-02
3.4519200e-01 1.6528300e-01 4.6516500e-02
3.3818989e-01 1.6058844e-01 4.6719044e-02
3.3073522e-01 1.5552011e-01 4.6416744e-02
3.2282800e-01 1.5007800e-01 4.5609600e-02
3.1446822e-01 1.4426211e-01 4.4297611e-02
3.0565589e-01 1.3807244e-01 4.2480778e-02
2.9639100e-01 1.3150900e-01 4.0159100e-02
2.9639100e-01 1.3150900e-01 4.0159100e-02
2.8804578e-01 1.2430169e-01 3.7572211e-02
2.8067978e-01 1.1708102e-01 3.5705078e-02
2.7429300e-01 1.0984700e-01 3.4557700e-02
2.6888544e-01 1.0259962e-01 3.4130078e-02
2.6445711e-01 9.5338889e-02 3.4422211e-02
2.6100800e-01 8.8064800e-02 3.5434100e-02
2.6100800e-01 8.8064800e-02 3.5434100e-02
2.5668278e-01 8.1280311e-02 3.5473778e-02
2.5229244e-01 7.4694544e-02 3.5304544e-02
2.4783700e-01 6.8307500e-02 3.4926400e-02
2.4331644e-01 6.2119178e-02 3.4339344e-02
2.3873078e-01 5.6129578e-02 3.3543378e-02
2.3408000e-01 5.0338700e-02 3.2538500e-02
2.3408000e-01 5.0338700e-02 3.2538500e-02
2.3007156e-01 4.4630889e-02 3.2532589e-02
2.2584722e-01 3.9091156e-02 3.2275922e-02
2.2140700e-01 3.3719500e-02 3.1768500e-02
2.1675089e-01 2.8515922e-02 3.1010322e-02
2.1187889e-01 2.3480422e-02 3.0001389e-02
2.0679100e-01 1.8613000e-02 2.8741700e-02
2.0679100e-01 1.8613000e-02 2.8741700e-02
2.0130289e-01 1.4102988e-02 2.6809978e-02
1.9518989e-01 9.7914811e-03 2.4653578e-02
1.8845200e-01 5.6784800e-03 2.2272500e-02
1.8108922e-01 1.7639844e-03 1.9666744e-02
1.7310156e-01 -1.9520056e-03 1.6836311e-02
1.6448900e-01 -5.4694900e-03 1.3781200e-02
1.6448900e-01 -5.4694900e-03 1.3781200e-02
1.5399216e-01 -8.8418944e-03 1.0560118e-02
1.4320549e-01 -1.1519198e-02 7.6868478e-03
1.3212900e-01 -1.3501400e-02 5.1613900e-03
1.2076269e-01 -1.4788501e-02 2.9837444e-03
1.0910656e-01 -1.5380501e-02 1.1539111e-03
9.7160600e-02 -1.5277400e-02 -3.2811000e-04
9.7160600e-02 -1.5277400e-02 -3.2811000e-04
8.5996500e-02 -1.3901888e-02 -1.8925044e-03
7.5386967e-02 -1.2324221e-02 -3.1405844e-03
6.5332000e-02 -1.0544400e-02 -4.0723500e-03
5.5831600e-02 -8.5624244e-03 -4.6878011e-03
4.6885767e-02 -6.3782944e-03 -4.9869378e-03
3.8494500e-02 -3.9920100e-03 -4.9697600e-03
3.8494500e-02 -3.9920100e-03 -4.9697600e-03
3.1139358e-02 -2.7706366e-03 -3.9723656e-03
2.4200058e-02 -1.7211786e-03 -2.9103656e-03
1.7676600e-02 -8.4363600e-04 -1.7837600e-03
1.1568985e-02 -1.3800889e-04 -5.9254889e-04
5.8772117e-03 3.9570278e-04 6.6326778e-04
6.0128100e-04 7.5749900e-04 1.9836900e-03
4.1759100e-01 2.3263200e-01 -5.8314700e-03
4.2339967e-01 2.3367000e-01 -3.0721333e-03
4.2893500e-01 2.3391133e-01 -4.4326000e-04
4.3419700e-01 2.3335600e-01 2.0551500e-03
4.3918567e-01 2.3200400e-01 4.4230967e-03
4.4390100e-01 2.2985533e-01 6.6605800e-03
4.4834300e-01 2.2691000e-01 8.7676000e-03
4.4834300e-01 2.2691000e-01 8.7676000e-03
4.5223500e-01 2.2155889e-01 9.9774111e-03
4.5583967e-01 2.1568722e-01 1.0458811e-02
4.5915700e-01 2.0929500e-01 1.0211800e-02
4.6218700e-01 2.0238222e-01 9.2363778e-03
4.6492967e-01 1.9494889e-01 7.5325444e-03
4.6738500e-01 1.8699500e-01 5.1003000e-03
4.6738500e-01 1.8699500e-01 5.1003000e-03
4.6968711e-01 1.7850256e-01 2.9855678e-03
4.7149944e-01 1.7101189e-01 1.0409051e-03
4.7282200e-01 1.6452300e-01 -7.3368800e-04
4.7365478e-01 1.5903589e-01 -2.3382116e-03
4.7399778e-01 1.5455056e-01 -3.7726656e-03
4.7385100e-01 1.5106700e-01 -5.0370500e-03
4.7385100e-01 1.5106700e-01 -5.0370500e-03
4.7331100e-01 1.5076367e-01 -5.6865511e-03
4.7316033e-01 1.5072167e-01 -6.0464644e-03
4.7339900e-01 1.5094100e-01 -6.1167900e-03
4.7402700e-01 1.5142167e-01 -5.8975278e-03
4.7504433e-01 1.5216367e-01 -5.3886778e-03
4.7645100e-01 1.5316700e-01 -4.5902400e-03
4.0227000e-01 2.2582100e-01 1.2047300e-02
4.0598289e-01 2.2499644e-01 1.6881033e-02
4.0921989e-01 2.2351111e-01 2.1096833e-02
4.1198100e-01 2.2136500e-01 2.4694700e-02
4.1426622e-01 2.1855811e-01 2.7674633e-02
4.1607556e-01 2.1509044e-01 3.0036633e-02
4.1740900e-01 2.1096200e-01 3.1780700e-02
5.0215100e-01 5.2272400e-02 -1.7932700e-02
4.9852122e-01 4.6317789e-02 -1.7254300e-02
4.9480922e-01 4.0652489e-02 -1.6438167e-02
4.9101500e-01 3.5276500e-02 -1.5484300e-02
4.8713856e-01 3.0189822e-02 -1.4392700e-02
4.8317989e-01 2.5392456e-02 -1.3163367e-02
4.7913900e-01 2.0884400e-02 -1.1796300e-02
4.7913900e-01 2.0884400e-02 -1.1796300e-02
4.7694200e-01 1.8135579e-02 -1.1580630e-02
4.7417800e-01 1.5564946e-02 -1.0817373e-02
4.7084700e-01 1.3172500e-02 -9.5065300e-03
4.6694900e-01 1.0958242e-02 -7.6481000e-03
4.6248400e-01 8.9221722e-03 -5.2420833e-03
4.5745200e-01 7.0642900e-03 -2.2884800e-03
4.5745200e-01 7.0642900e-03 -2.2884800e-03
4.5192567e-01 4.8678900e-03 2.3424444e-04
4.4620767e-01 2.9626800e-03 2.5808644e-03
4.4029800e-01 1.3486600e-03 4.7513800e-03
4.3419667e-01 2.5830000e-05 6.7457911e-03
4.2790367e-01 -1.0058100e-03 8.5640978e-03
4.2141900e-01 -1.7462600e-03 1.0206300e-02
4.2141900e-01 -1.7462600e-03 1.0206300e-02
4.1197033e-01 -2.5844400e-03 1.1878833e-02
4.0224033e-01 -3.2444233e-03 1.3095000e-02
3.9222900e-01 -3.7262100e-03 1.3854800e-02
3.8193633e-01 -4.0298000e-03 1.4158233e-02
3.7136233e-01 -4.1551933e-03 1.4005300e-02
3.6050700e-01 -4.1023900e-03 1.3396000e-02
3.6050700e-01 -4.1023900e-03 1.3396000e-02
3.5137267e-01 -3.3409444e-03 1.2864734e-02
3.4230267e-01 -2.3730311e-03 1.2196001e-02
3.3329700e-01 -1.1986500e-03 1.1389800e-02
3.2435567e-01 1.8219889e-04 1.0446131e-02
3.1547867e-01 1.7695156e-03 9.3649944e-03
3.0666600e-01 3.5633000e-03 8.1463900e-03
3.0666600e-01 3.5633000e-03 8.1463900e-03
2.9773778e-01 5.0067778e-03 6.5446578e-03
2.8868111e-01 6.5978111e-03 4.9534911e-03
2.7949600e-01 8.3364000e-03 3.3728900e-03
2.7018244e-01 1.0222544e-02 1.8028544e-03
2.6074044e-01 1.2256244e-02 2.4338444e-04
2.5117000e-01 1.4437500e-02 -1.3055200e-03
2.5117000e-01 1.4437500e-02 -1.3055200e-03
2.4247756e-01 1.6245611e-02 -2.7838433e-03
2.3316489e-01 1.8219178e-02 -3.9964967e-03
2.2323200e-01 2.0358200e-02 -4.9434800e-03
2.1267889e-01 2.2662678e-02 -5.6247933e-03
2.0150556e-01 2.5132611e-02 -6.0404367e-03
1.8971200e-01 2.7768000e-02 -6.1904100e-03
1.8971200e-01 2.7768000e-02 -6.1904100e-03
1.7582078e-01 3.1194511e-02 -5.3827899e-03
1.6255378e-01 3.3871211e-02 -4.4929499e-03
1.4991100e-01 3.5798100e-02 -3.5208900e-03
1.3789244e-01 3.6975178e-02 -2.4666102e-03
1.2649811e-01 3.7402444e-02 -1.3301106e-03
1.1572800e-01 3.7079900e-02 -1.1139100e-04
1.1572800e-01 3.7079900e-02 -1.1139100e-04
1.0438628e-01 3.5783444e-02 1.0495750e-03
9.3832078e-02 3.4117178e-02 2.0268153e-03
8.4065400e-02 3.2081100e-02 2.8203300e-03
7.5086244e-02 2.9675211e-02 3.4301190e-03
6.6894611e-02 2.6899511e-02 3.8561823e-03
5.9490500e-02 2.3754000e-02 4.0985200e-03
5.9490500e-02 2.3754000e-02 4.0985200e-03
5.2645789e-02 2.0845174e-02 4.5863222e-03
4.6112656e-02 1.8007574e-02 5.0610289e-03
3.9891100e-02 1.5241200e-02 5.5226400e-03
3.3981122e-02 1.2546051e-02 5.9711556e-03
2.8382722e-02 9.9221278e-03 6.4065756e-03
2.3095900e-02 7.3694300e-03 6.8289000e-03
2.3095900e-02 7.3694300e-03 6.8289000e-03
2.0012770e-02 6.2549856e-03 5.5696288e-03
1.6890103e-02 4.8995589e-03 4.3806088e-03
1.3727900e-02 3.3031500e-03 3.2618400e-03
1.0526160e-02 1.4657589e-03 2.2133224e-03
7.2848833e-03 -6.1261444e-04 1.2350561e-03
4.0040700e-03 -2.9319700e-03 3.2704100e-04
1.6050800e+00 1.1810700e-01 4.1408500e-02
1.6027389e+00 1.0949700e-01 4.4233422e-02
1.6001489e+00 1.0111290e-01 4.6985622e-02
1.5973100e+00 9.2954700e-02 4.9665100e-02
1.5942222e+00 8.5022400e-02 5.2271856e-02
1.5908856e+00 7.7316000e-02 5.4805889e-02
1.5873000e+00 6.9835500e-02 5.7267200e-02
1.5873000e+00 6.9835500e-02 5.7267200e-02
1.5841689e+00 6.4887344e-02 5.8745389e-02
1.5810189e+00 6.1313178e-02 6.0134322e-02
1.5778500e+00 5.9113000e-02 6.1434000e-02
1.5746622e+00 5.8286811e-02 6.2644422e-02
1.5714556e+00 5.8834611e-02 6.3765589e-02
1.5682300e+00 6.0756400e-02 6.4797500e-02
1.5682300e+00 6.0756400e-02 6.4797500e-02
1.5647944e+00 6.2484322e-02 6.5746233e-02
1.5608444e+00 6.4375756e-02 6.6786300e-02
1.5563800e+00 6.6430700e-02 6.7917700e-02
1.5514011e+00 6.8649156e-02 6.9140433e-02
1.5459078e+00 7.1031122e-02 7.0454500e-02
1.5399000e+00 7.3576600e-02 7.1859900e-02
1.5399000e+00 7.3576600e-02 7.1859900e-02
1.5318967e+00 7.6292278e-02 7.4136333e-02
1.5243000e+00 7.7743811e-02 7.6333800e-02
1.5171100e+00 7.7931200e-02 7.8452300e-02
1.5103267e+00 7.6854444e-02 8.0491833e-02
1.5039500e+00 7.4513544e-02 8.2452400e-02
1.4979800e+00 7.0908500e-02 8.4334000e-02
1.4979800e+00 7.0908500e-02 8.4334000e-02
1.4933400e+00 6.6839256e-02 8.5207633e-02
1.4889500e+00 6.2564622e-02 8.5452833e-02
1.4848100e+00 5.8084600e-02 8.5069600e-02
1.4809200e+00 5.3399189e-02 8.4057933e-02
1.4772800e+00 4.8508389e-02 8.2417833e-02
1.4738900e+00 4.3412200e-02 8.0149300e-02
1.4738900e+00 4.3412200e-02 8.0149300e-02
1.4668556e+00 4.7761100e-02 8.0606900e-02
1.4592789e+00 5.1873467e-02 8.0661333e-02
1.4511600e+00 5.5749300e-02 8.0312600e-02
1.4424989e+00 5.9388600e-02 7.9560700e-02
1.4332956e+00 6.2791367e-02 7.8405633e-02
1.4235500e+00 6.5957600e-02 7.6847400e-02
1.4235500e+00 6.5957600e-02 7.6847400e-02
1.4143867e+00 6.7740289e-02 7.3828400e-02
1.4059633e+00 6.8511222e-02 7.0603800e-02
1.3982800e+00 6.8270400e-02 6.7173600e-02
1.3913367e+00 6.7017822e-02 6.3537800e-02
1.3851333e+00 6.4753489e-02 5.9696400e-02
1.3796700e+00 6.1477400e-02 5.5649400e-02
1.3796700e+00 6.1477400e-02 5.5649400e-02
1.3751467e+00 5.7347133e-02 5.3276911e-02
1.3701967e+00 5.3041333e-02 5.0688544e-02
1.3648200e+00 4.8560000e-02 4.7884300e-02
1.3590167e+00 4.3903133e-02 4.4864178e-02
1.3527867e+00 3.9070733e-02 4.1628178e-02
1.3461300e+00 3.4062800e-02 3.8176300e-02
1.3461300e+00 3.4062800e-02 3.8176300e-02
1.3377833e+00 2.9039667e-02 3.3553800e-02
1.3284967e+00 2.5122133e-02 2.9293767e-02
1.3182700e+00 2.2310200e-02 2.5396200e-02
1.3071033e+00 2.0603867e-02 2.1861100e-02
1.2949967e+00 2.0003133e-02 1.8688467e-02
1.2819500e+00 2.0508000e-02 1.5878300e-02
1.2819500e+00 2.0508000e-02 1.5878300e-02
1.2684100e+00 2.3618244e-02 1.4555500e-02
1.2561333e+00 2.6742044e-02 1.3560067e-02
1.2451200e+00 2.9879400e-02 1.2892000e-02
1.2353700e+00 3.3030311e-02 1.2551300e-02
1.2268833e+00 3.6194778e-02 1.2537967e-02
1.2196600e+00 3.9372800e-02 1.2852000e-02
1.2411200e+00 5.2858900e-02 4.9739200e-03
1.2395433e+00 4.9003744e-02 5.0619111e-03
1.2371667e+00 4.5791578e-02 5.6399111e-03
1.2339900e+00 4.3222400e-02 6.7079200e-03
1.2300133e+00 4.1296211e-02 8.2659378e-03
1.2252367e+00 4.0013011e-02 1.0313964e-02
1.2196600e+00 3.9372800e-02 1.2852000e-02
1.5273900e+00 1.2987900e-01 3.9217000e-02
1.5228022e+00 1.2624267e-01 3.5928489e-02
1.5182522e+00 1.2256133e-01 3.2495322e-02
1.5137400e+00 1.1883500e-01 2.8917500e-02
1.5092656e+00 1.1506367e-01 2.5195022e-02
1.5048289e+00 1.1124733e-01 2.1327889e-02
1.5004300e+00 1.0738600e-01 1.7316100e-02
1.5004300e+00 1.0738600e-01 1.7316100e-02
1.4963267e+00 1.0275939e-01 1.3468060e-02
1.4923000e+00 9.8459389e-02 1.0644380e-02
1.4883500e+00 9.4486000e-02 8.8450600e-03
1.4844767e+00 9.0839222e-02 8.0701000e-03
1.4806800e+00 8.7519056e-02 8.3195000e-03
1.4769600e+00 8.4525500e-02 9.5932600e-03
1.4769600e+00 8.4525500e-02 9.5932600e-03
1.4709233e+00 8.2894078e-02 1.4626511e-02
1.4643933e+00 8.1685744e-02 1.9768291e-02
1.4573700e+00 8.0900500e-02 2.5018600e-02
1.4498533e+00 8.0538344e-02 3.0377438e-02
1.4418433e+00 8.0599278e-02 3.5844804e-02
1.4333400e+00 8.1083300e-02 4.1420700e-02
1.4333400e+00 8.1083300e-02 4.1420700e-02
1.4250467e+00 8.2772022e-02 4.7809567e-02
1.4164167e+00 8.4041156e-02 5.4360233e-02
1.4074500e+00 8.4890700e-02 6.1072700e-02
1.3981467e+00 8.5320656e-02 6.7946967e-02
1.3885067e+00 8.5331022e-02 7.4983033e-02
1.3785300e+00 8.4921800e-02 8.2180900e-02
1.3785300e+00 8.4921800e-02 8.2180900e-02
1.3686722e+00 7.9749511e-02 8.2079033e-02
1.3580456e+00 7.5015978e-02 7.9463800e-02
1.3466500e+00 7.0721200e-02 7.4335200e-02
1.3344856e+00 6.6865178e-02 6.6693233e-02
1.3215522e+00 6.3447911e-02 5.6537900e-02
1.3078500e+00 6.0469400e-02 4.3869200e-02
1.3078500e+00 6.0469400e-02 4.3869200e-02
1.2949922e+00 5.9386511e-02 3.3990509e-02
1.2828289e+00 5.8229411e-02 2.5470276e-02
1.2713600e+00 5.6998100e-02 1.8308500e-02
1.2605856e+00 5.5692578e-02 1.2505182e-02
1.2505056e+00 5.4312844e-02 8.0603222e-03
1.2411200e+00 5.2858900e-02 4.9739200e-03
9.0207700e-01 8.3172400e-02 -2.5443500e-03
9.1223500e-01 7.5707756e-02 -1.2843411e-03
9.2417333e-01 6.8908956e-02 -8.5979111e-04
9.3789200e-01 6.2776000e-02 -1.2707000e-03
9.5339100e-01 5.7308889e-02 -2.5170678e-03
9.7067033e-01 5.2507622e-02 -4.5988944e-03
9.8973000e-01 4.8372200e-02 -7.5161800e-03
9.8973000e-01 4.8372200e-02 -7.5161800e-03
1.0069556e+00 4.9782222e-02 -7.8404244e-03
1.0232656e+00 5.2389656e-02 -7.6114211e-03
1.0386600e+00 5.6194500e-02 -6.8291700e-03
1.0531389e+00 6.1196756e-02 -5.4936711e-03
1.0667022e+00 6.7396422e-02 -3.6049244e-03
1.0793500e+00 7.4793500e-02 -1.1629300e-03
1.0793500e+00 7.4793500e-02 -1.1629300e-03
1.0913356e+00 8.1965333e-02 4.8587889e-04
1.1039389e+00 8.7724600e-02 2.1458189e-03
1.1171600e+00 9.2071300e-02 3.8168900e-03
1.1309989e+00 9.5005433e-02 5.4990922e-03
1.1454556e+00 9.6527000e-02 7.1924256e-03
1.1605300e+00 9.6636000e-02 8.8968900e-03
1.1605300e+00 9.6636000e-02 8.8968900e-03
1.1770978e+00 9.1145289e-02 9.4075089e-03
1.1924111e+00 8.4932389e-02 9.4523489e-03
1.2064700e+00 7.7997300e-02 9.0314100e-03
1.2192744e+00 7.0340022e-02 8.1446922e-03
1.2308244e+00 6.1960556e-02 6.7921956e-03
1.2411200e+00 5.2858900e-02 4.9739200e-03
7.3426000e-01 2.6819000e-01 -4.3386400e-03