# vtk DataFile Version 2.0
test
ASCII
DATASET POLYDATA
POINTS 4361 float
5.0206122e+00 7.0207415e+00 1.1858778e+01
5.1322011e+00 7.0792317e+00 1.1733459e+01
5.2456488e+00 7.1367386e+00 1.1609461e+01
5.3609550e+00 7.1932621e+00 1.1486785e+01
5.4781200e+00 7.2488022e+00 1.1365431e+01
5.5971436e+00 7.3033590e+00 1.1245398e+01
5.7180258e+00 7.3569324e+00 1.1126686e+01
5.7180258e+00 7.3569324e+00 1.1126686e+01
5.8425090e+00 7.4165033e+00 1.1011838e+01
5.9731758e+00 7.4744866e+00 1.0905290e+01
6.1100265e+00 7.5308825e+00 1.0807042e+01
6.2530608e+00 7.5856909e+00 1.0717094e+01
6.4022788e+00 7.6389118e+00 1.0635445e+01
6.5576806e+00 7.6905451e+00 1.0562095e+01
6.5576806e+00 7.6905451e+00 1.0562095e+01
6.7240502e+00 7.7366846e+00 1.0510628e+01
6.8924307e+00 7.7803446e+00 1.0473631e+01
7.0628220e+00 7.8215250e+00 1.0451107e+01
7.2352242e+00 7.8602260e+00 1.0443055e+01
7.4096372e+00 7.8964474e+00 1.0449474e+01
7.5860611e+00 7.9301894e+00 1.0470366e+01
7.5860611e+00 7.9301894e+00 1.0470366e+01
7.7606390e+00 7.9596920e+00 1.0494032e+01
7.9348800e+00 7.9869623e+00 1.0521432e+01
8.1087842e+00 8.0120002e+00 1.0552566e+01
8.2823515e+00 8.0348058e+00 1.0587435e+01
8.4555820e+00 8.0553791e+00 1.0626037e+01
8.6284756e+00 8.0737201e+00 1.0668374e+01
8.6284756e+00 8.0737201e+00 1.0668374e+01
8.8012799e+00 8.0900247e+00 1.0711886e+01
8.9749941e+00 8.1041917e+00 1.0751344e+01
9.1496182e+00 8.1162211e+00 1.0786750e+01
9.3251523e+00 8.1261129e+00 1.0818102e+01
9.5015964e+00 8.1338672e+00 1.0845402e+01
9.6789503e+00 8.1394839e+00 1.0868648e+01
9.6789503e+00 8.1394839e+00 1.0868648e+01
9.8590482e+00 8.1421748e+00 1.0883112e+01
1.0037411e+01 8.1427573e+00 1.0883456e+01
1.0214039e+01 8.1412315e+00 1.0869681e+01
1.0388933e+01 8.1375973e+00 1.0841786e+01
1.0562091e+01 8.1318548e+00 1.0799771e+01
1.0733515e+01 8.1240039e+00 1.0743636e+01
1.0733515e+01 8.1240039e+00 1.0743636e+01
1.0897696e+01 8.1137416e+00 1.0669336e+01
1.1053486e+01 8.1039208e+00 1.0583315e+01
1.1200887e+01 8.0945416e+00 1.0485572e+01
1.1339897e+01 8.0856040e+00 1.0376108e+01
1.1470518e+01 8.0771080e+00 1.0254923e+01
1.1592748e+01 8.0690536e+00 1.0122017e+01
1.1592748e+01 8.0690536e+00 1.0122017e+01
1.1702116e+01 8.0768131e+00 9.9806587e+00
1.1809988e+01 8.0823428e+00 9.8380926e+00
1.1916364e+01 8.0856428e+00 9.6943183e+00
1.2021244e+01 8.0867130e+00 9.5493361e+00
1.2124628e+01 8.0855536e+00 9.4031457e+00
1.2226516e+01 8.0821644e+00 9.2557473e+00
1.2226516e+01 8.0821644e+00 9.2557473e+00
1.2122370e+01 8.0105414e+00 9.1208031e+00
1.2018447e+01 7.9359395e+00 8.9875616e+00
1.1914748e+01 7.8583588e+00 8.8560227e+00
1.1811273e+01 7.7777993e+00 8.7261865e+00
1.1708021e+01 7.6942609e+00 8.5980529e+00
1.1604993e+01 7.6077436e+00 8.4716218e+00
1.1604993e+01 7.6077436e+00 8.4716218e+00
1.1502133e+01 7.5348897e+00 8.3365692e+00
1.1403125e+01 7.4610404e+00 8.1995651e+00
1.1307969e+01 7.3861957e+00 8.0606093e+00
1.1216664e+01 7.3103555e+00 7.9197020e+00
1.1129211e+01 7.2335200e+00 7.7768432e+00
1.1045610e+01 7.1556890e+00 7.6320328e+00
1.1045610e+01 7.1556890e+00 7.6320328e+00
1.0968763e+01 7.0781770e+00 7.4825768e+00
1.0899899e+01 6.9984658e+00 7.3314533e+00
1.0839019e+01 6.9165555e+00 7.1786623e+00
1.0786121e+01 6.8324459e+00 7.0242036e+00
1.0741208e+01 6.7461371e+00 6.8680774e+00
1.0704277e+01 6.6576291e+00 6.7102836e+00
1.0704277e+01 6.6576291e+00 6.7102836e+00
1.0679760e+01 6.5667753e+00 6.5517521e+00
1.0665400e+01 6.4744501e+00 6.3940660e+00
1.0661199e+01 6.3806535e+00 6.2372251e+00
1.0667155e+01 6.2853854e+00 6.0812296e+00
1.0683270e+01 6.1886459e+00 5.9260795e+00
1.0709543e+01 6.0904350e+00 5.7717747e+00
1.0709543e+01 6.0904350e+00 5.7717747e+00
1.0744357e+01 5.9913452e+00 5.6206872e+00
1.0785380e+01 5.8910495e+00 5.4726987e+00
1.0832611e+01 5.7895480e+00 5.3278092e+00
1.0886051e+01 5.6868406e+00 5.1860187e+00
1.0945699e+01 5.5829273e+00 5.0473271e+00
1.1011556e+01 5.4778082e+00 4.9117346e+00
1.1011556e+01 5.4778082e+00 4.9117346e+00
1.1080326e+01 5.3724051e+00 4.7784639e+00
1.1150680e+01 5.2660913e+00 4.6468374e+00
1.1222617e+01 5.1588668e+00 4.5168550e+00
1.1296137e+01 5.0507315e+00 4.3885168e+00
1.1371240e+01 4.9416854e+00 4.2618228e+00
1.1447927e+01 4.8317287e+00 4.1367728e+00
1.1447927e+01 4.8317287e+00 4.1367728e+00
1.1523596e+01 4.7196392e+00 4.0132112e+00
1.1596653e+01 4.6049595e+00 3.8904299e+00
1.1667097e+01 4.4876896e+00 3.7684288e+00
1.1734930e+01 4.3678294e+00 3.6472080e+00
1.1800150e+01 4.2453791e+00 3.5267675e+00
1.1862757e+01 4.1203385e+00 3.4071073e+00
1.1862757e+01 4.1203385e+00 3.4071073e+00
1.1920604e+01 3.9923940e+00 3.2876049e+00
1.1971365e+01 3.8621434e+00 3.1682976e+00
1.2015041e+01 3.7295866e+00 3.0491853e+00
1.2051629e+01 3.5947237e+00 2.9302680e+00
1.2081132e+01 3.4575546e+00 2.8115458e+00
1.2103549e+01 3.3180793e+00 2.6930187e+00
1.2103549e+01 3.3180793e+00 2.6930187e+00
1.2117939e+01 3.1751504e+00 2.5763429e+00
1.2122790e+01 3.0313848e+00 2.4614160e+00
1.2118103e+01 2.8867828e+00 2.3482379e+00
1.2103877e+01 2.7413442e+00 2.2368087e+00
1.2080112e+01 2.5950690e+00 2.1271283e+00
1.2046809e+01 2.4479573e+00 2.0191967e+00
1.2046809e+01 2.4479573e+00 2.0191967e+00
1.2003087e+01 2.3039434e+00 1.9112154e+00
1.1952372e+01 2.1611215e+00 1.8055905e+00
1.1894664e+01 2.0194914e+00 1.7023222e+00
1.1829963e+01 1.8790531e+00 1.6014105e+00
1.1758269e+01 1.7398068e+00 1.5028552e+00
1.1679582e+01 1.6017523e+00 1.4066565e+00
1.1679582e+01 1.6017523e+00 1.4066565e+00
1.1592912e+01 1.4660732e+00 1.3142320e+00
1.1502940e+01 1.3314544e+00 1.2238322e+00
1.1409665e+01 1.1978960e+00 1.1354572e+00
1.1313088e+01 1.0653980e+00 1.0491070e+00
1.1213209e+01 9.3396040e-01 9.6478148e-01
1.1110027e+01 8.0358317e-01 8.8248077e-01
1.1110027e+01 8.0358317e-01 8.8248077e-01
1.1007146e+01 6.7149838e-01 8.0154642e-01
1.0903722e+01 5.3960812e-01 7.2117281e-01
1.0799754e+01 4.0791239e-01 6.4135993e-01
1.0695242e+01 2.7641120e-01 5.6210778e-01
1.0590187e+01 1.4510453e-01 4.8341638e-01
1.0484588e+01 1.3992400e-02 4.0528570e-01
2.7610500e+00 5.9478011e+00 1.1735526e+01
2.7246409e+00 5.9038569e+00 1.1552636e+01
2.6884308e+00 5.8561920e+00 1.1370786e+01
2.6524198e+00 5.8048065e+00 1.1189976e+01
2.6166079e+00 5.7497004e+00 1.1010206e+01
2.5809950e+00 5.6908737e+00 1.0831476e+01
2.5455812e+00 5.6283263e+00 1.0653787e+01
2.5455812e+00 5.6283263e+00 1.0653787e+01
2.5194363e+00 5.5766690e+00 1.0470796e+01
2.4999674e+00 5.5228409e+00 1.0288209e+01
2.4871746e+00 5.4668421e+00 1.0106027e+01
2.4810578e+00 5.4086724e+00 9.9242480e+00
2.4816172e+00 5.3483320e+00 9.7428736e+00
2.4888526e+00 5.2858209e+00 9.5619032e+00
2.4888526e+00 5.2858209e+00 9.5619032e+00
2.5083978e+00 5.2179417e+00 9.3829068e+00
2.5374895e+00 5.1467471e+00 9.2080824e+00
2.5761276e+00 5.0722370e+00 9.0374300e+00
2.6243121e+00 4.9944113e+00 8.8709495e+00
2.6820429e+00 4.9132701e+00 8.7086410e+00
2.7493202e+00 4.8288135e+00 8.5505045e+00
2.7493202e+00 4.8288135e+00 8.5505045e+00
2.8317673e+00 4.7401072e+00 8.4013340e+00
2.9241444e+00 4.6497822e+00 8.2617779e+00
3.0264516e+00 4.5578383e+00 8.1318362e+00
3.1386888e+00 4.4642756e+00 8.0115088e+00
3.2608560e+00 4.3690941e+00 7.9007959e+00
3.3929533e+00 4.2722937e+00 7.7996974e+00
3.3929533e+00 4.2722937e+00 7.7996974e+00
3.5241860e+00 4.1759519e+00 7.7009927e+00
3.6561423e+00 4.0786321e+00 7.6044310e+00
3.7888222e+00 3.9803344e+00 7.5100125e+00
3.9222257e+00 3.8810587e+00 7.4177369e+00
4.0563528e+00 3.7808051e+00 7.3276044e+00
4.1912035e+00 3.6795736e+00 7.2396150e+00
4.1912035e+00 3.6795736e+00 7.2396150e+00
4.3275999e+00 3.5762055e+00 7.1557791e+00
4.4606701e+00 3.4702566e+00 7.0702992e+00
4.5904142e+00 3.3617267e+00 6.9831756e+00
4.7168323e+00 3.2506158e+00 6.8944081e+00
4.8399241e+00 3.1369240e+00 6.8039967e+00
4.9596899e+00 3.0206512e+00 6.7119415e+00
4.9596899e+00 3.0206512e+00 6.7119415e+00
5.0736097e+00 2.9016158e+00 6.6142121e+00
5.1776863e+00 2.7798629e+00 6.5113615e+00
5.2719198e+00 2.6553925e+00 6.4033895e+00
5.3563101e+00 2.5282046e+00 6.2902962e+00
5.4308572e+00 2.3982993e+00 6.1720816e+00
5.4955612e+00 2.2656764e+00 6.0487458e+00
5.4955612e+00 2.2656764e+00 6.0487458e+00
5.5422177e+00 2.1306822e+00 5.9191910e+00
5.5764422e+00 1.9963823e+00 5.7874360e+00
5.5982348e+00 1.8627766e+00 5.6534809e+00
5.6075954e+00 1.7298653e+00 5.5173256e+00
5.6045240e+00 1.5976484e+00 5.3789701e+00
5.5890206e+00 1.4661257e+00 5.2384145e+00
5.5890206e+00 1.4661257e+00 5.2384145e+00
5.5647553e+00 1.3390895e+00 5.0959308e+00
5.5347165e+00 1.2137704e+00 4.9534654e+00
5.4989040e+00 1.0901682e+00 4.8110182e+00
5.4573180e+00 9.6828304e-01 4.6685892e+00
5.4099585e+00 8.4811485e-01 4.5261785e+00
5.3568254e+00 7.2966364e-01 4.3837859e+00
5.3568254e+00 7.2966364e-01 4.3837859e+00
5.3019336e+00 6.0857180e-01 4.2448661e+00
5.2458501e+00 4.8751708e-01 4.1062633e+00
5.1885751e+00 3.6649947e-01 3.9679777e+00
5.1301084e+00 2.4551897e-01 3.8300093e+00
5.0704501e+00 1.2457559e-01 3.6923580e+00
5.0096001e+00 3.6693200e-03 3.5550238e+00
1.5412200e+00 5.7542984e+00 1.3882905e+01
1.6108941e+00 5.8615078e+00 1.3733961e+01
1.6928711e+00 5.9676731e+00 1.3594713e+01
1.7871511e+00 6.0727942e+00 1.3465163e+01
1.8937339e+00 6.1768712e+00 1.3345309e+01
2.0126196e+00 6.2799041e+00 1.3235153e+01
2.1438082e+00 6.3818929e+00 1.3134694e+01
2.1438082e+00 6.3818929e+00 1.3134694e+01
2.3069575e+00 6.4700790e+00 1.3075483e+01
2.4761747e+00 6.5478045e+00 1.3029859e+01
2.6514600e+00 6.6150694e+00 1.2997822e+01
2.8328133e+00 6.6718737e+00 1.2979373e+01
3.0202346e+00 6.7182173e+00 1.2974510e+01
3.2137240e+00 6.7541004e+00 1.2983235e+01
3.2137240e+00 6.7541004e+00 1.2983235e+01
3.4082168e+00 6.7831725e+00 1.2991990e+01
3.5988304e+00 6.8109644e+00 1.2982646e+01
3.7855648e+00 6.8374759e+00 1.2955200e+01
3.9684199e+00 6.8627072e+00 1.2909655e+01
4.1473958e+00 6.8866581e+00 1.2846009e+01
4.3224925e+00 6.9093288e+00 1.2764262e+01
4.3224925e+00 6.9093288e+00 1.2764262e+01
4.4682537e+00 6.9344541e+00 1.2638012e+01
4.6022518e+00 6.9569568e+00 1.2501896e+01
4.7244867e+00 6.9768369e+00 1.2355915e+01
4.8349584e+00 6.9940944e+00 1.2200068e+01
[...]
POINT_DATA 4361
VECTORS U float
1.7237100e+00 5.5789300e-01 -8.4797300e-03
1.7394633e+00 5.4488711e-01 -1.0460556e-04
1.7544400e+00 5.3057511e-01 7.2726378e-03
1.7686400e+00 5.1495700e-01 1.3652000e-02
1.7820633e+00 4.9803278e-01 1.9033481e-02
1.7947100e+00 4.7980244e-01 2.3417081e-02
1.8065800e+00 4.6026600e-01 2.6802800e-02
1.8065800e+00 4.6026600e-01 2.6802800e-02
1.8158733e+00 4.4552911e-01 2.9830478e-02
1.8241600e+00 4.2967244e-01 3.1032378e-02
1.8314400e+00 4.1269600e-01 3.0408500e-02
1.8377133e+00 3.9459978e-01 2.7958844e-02
1.8429800e+00 3.7538378e-01 2.3683411e-02
1.8472400e+00 3.5504800e-01 1.7582200e-02
1.8472400e+00 3.5504800e-01 1.7582200e-02
1.8539689e+00 3.3191889e-01 1.4816100e-02
1.8599622e+00 3.1017322e-01 1.3749000e-02
1.8652200e+00 2.8981100e-01 1.4380900e-02
1.8697422e+00 2.7083222e-01 1.6711800e-02
1.8735289e+00 2.5323689e-01 2.0741700e-02
1.8765800e+00 2.3702500e-01 2.6470600e-02
1.8765800e+00 2.3702500e-01 2.6470600e-02
1.8792089e+00 2.2118033e-01 2.6708322e-02
1.8814456e+00 2.0649533e-01 2.7004622e-02
1.8832900e+00 1.9297000e-01 2.7359500e-02
1.8847422e+00 1.8060433e-01 2.7772956e-02
1.8858022e+00 1.6939833e-01 2.8244989e-02
1.8864700e+00 1.5935200e-01 2.8775600e-02
1.8864700e+00 1.5935200e-01 2.8775600e-02
1.8865978e+00 1.4989222e-01 3.0641811e-02
1.8866344e+00 1.4105122e-01 3.2506978e-02
1.8865800e+00 1.3282900e-01 3.4371100e-02
1.8864344e+00 1.2522556e-01 3.6234178e-02
1.8861978e+00 1.1824089e-01 3.8096211e-02
1.8858700e+00 1.1187500e-01 3.9957200e-02
1.8858700e+00 1.1187500e-01 3.9957200e-02
1.8855800e+00 1.0544014e-01 4.1758411e-02
1.8851200e+00 9.9910744e-02 4.2633844e-02
1.8844900e+00 9.5286800e-02 4.2583500e-02
1.8836900e+00 9.1568311e-02 4.1607378e-02
1.8827200e+00 8.8755278e-02 3.9705478e-02
1.8815800e+00 8.6847700e-02 3.6877800e-02
1.8815800e+00 8.6847700e-02 3.6877800e-02
1.8806900e+00 8.5683889e-02 3.4789429e-02
1.8782400e+00 8.6590622e-02 3.1233596e-02
1.8742300e+00 8.9567900e-02 2.6210300e-02
1.8686600e+00 9.4615722e-02 1.9719542e-02
1.8615300e+00 1.0173409e-01 1.1761322e-02
1.8528400e+00 1.1092300e-01 2.3356400e-03
1.8528400e+00 1.1092300e-01 2.3356400e-03
1.8375967e+00 1.3635911e-01 -1.1366333e-02
1.8234967e+00 1.5986511e-01 -2.3958480e-02
1.8105400e+00 1.8144100e-01 -3.5440800e-02
1.7987267e+00 2.0108678e-01 -4.5813293e-02
1.7880567e+00 2.1880244e-01 -5.5075960e-02
1.7785300e+00 2.3458800e-01 -6.3228800e-02
1.7785300e+00 2.3458800e-01 -6.3228800e-02
1.7692456e+00 2.2661289e-01 -5.3933067e-02
1.7588422e+00 2.1617356e-01 -4.2325533e-02
1.7473200e+00 2.0327000e-01 -2.8406200e-02
1.7346789e+00 1.8790222e-01 -1.2175067e-02
1.7209189e+00 1.7007022e-01 6.3678667e-03
1.7060400e+00 1.4977400e-01 2.7222600e-02
1.7060400e+00 1.4977400e-01 2.7222600e-02
1.6888133e+00 1.4419211e-01 4.0791944e-02
1.6706700e+00 1.3917344e-01 5.3968578e-02
1.6516100e+00 1.3471800e-01 6.6752500e-02
1.6316333e+00 1.3082578e-01 7.9143711e-02
1.6107400e+00 1.2749678e-01 9.1142211e-02
1.5889300e+00 1.2473100e-01 1.0274800e-01
1.5889300e+00 1.2473100e-01 1.0274800e-01
1.5668000e+00 1.2456978e-01 1.1198956e-01
1.5433533e+00 1.2424944e-01 1.2031222e-01
1.5185900e+00 1.2377000e-01 1.2771600e-01
1.4925100e+00 1.2313144e-01 1.3420089e-01
1.4651133e+00 1.2233378e-01 1.3976689e-01
1.4364000e+00 1.2137700e-01 1.4441400e-01
1.4364000e+00 1.2137700e-01 1.4441400e-01
1.4077244e+00 1.1998489e-01 1.4758389e-01
1.3793278e+00 1.1809889e-01 1.4921222e-01
1.3512100e+00 1.1571900e-01 1.4929900e-01
1.3233711e+00 1.1284522e-01 1.4784422e-01
1.2958111e+00 1.0947756e-01 1.4484789e-01
1.2685300e+00 1.0561600e-01 1.4031000e-01
1.2685300e+00 1.0561600e-01 1.4031000e-01
1.2416467e+00 1.0097817e-01 1.3491211e-01
1.2156000e+00 9.5527667e-02 1.2943578e-01
1.1903900e+00 8.9264500e-02 1.2388100e-01
1.1660167e+00 8.2188667e-02 1.1824778e-01
1.1424800e+00 7.4300167e-02 1.1253611e-01
1.1197800e+00 6.5599000e-02 1.0674600e-01
1.1197800e+00 6.5599000e-02 1.0674600e-01
1.0971273e+00 5.7036378e-02 1.0046747e-01
1.0745440e+00 4.8571344e-02 9.3837267e-02
1.0520300e+00 4.0203900e-02 8.6855400e-02
1.0295853e+00 3.1934044e-02 7.9521867e-02
1.0072100e+00 2.3761778e-02 7.1836667e-02
9.8490400e-01 1.5687100e-02 6.3799800e-02
9.8490400e-01 1.5687100e-02 6.3799800e-02
9.6158422e-01 6.9262556e-03 5.5978978e-02
9.3717389e-01 -2.3209111e-03 4.8196978e-02
9.1167300e-01 -1.2054400e-02 4.0453800e-02
8.8508156e-01 -2.2274211e-02 3.2749444e-02
8.5739956e-01 -3.2980344e-02 2.5083911e-02
8.2862700e-01 -4.4172800e-02 1.7457200e-02
8.2862700e-01 -4.4172800e-02 1.7457200e-02
7.9796856e-01 -5.5435978e-02 9.9352667e-03
7.6560489e-01 -6.5818978e-02 2.6375400e-03
7.3153600e-01 -7.5321800e-02 -4.4359800e-03
6.9576189e-01 -8.3944444e-02 -1.1285293e-02
6.5828256e-01 -9.1686911e-02 -1.7910400e-02
6.1909800e-01 -9.8549200e-02 -2.4311300e-02
6.1909800e-01 -9.8549200e-02 -2.4311300e-02
5.8004033e-01 -1.0483133e-01 -2.8421589e-02
5.4133200e-01 -1.0948593e-01 -3.1423122e-02
5.0297300e-01 -1.1251300e-01 -3.3315900e-02
4.6496333e-01 -1.1391253e-01 -3.4099922e-02
4.2730300e-01 -1.1368453e-01 -3.3775189e-02
3.8999200e-01 -1.1182900e-01 -3.2341700e-02
3.8999200e-01 -1.1182900e-01 -3.2341700e-02
3.5464400e-01 -1.0593346e-01 -3.2727389e-02
3.2160700e-01 -9.9354556e-02 -3.2852289e-02
2.9088100e-01 -9.2092300e-02 -3.2716400e-02
2.6246600e-01 -8.4146689e-02 -3.2319722e-02
2.3636200e-01 -7.5517722e-02 -3.1662256e-02
2.1256900e-01 -6.6205400e-02 -3.0744000e-02
2.1256900e-01 -6.6205400e-02 -3.0744000e-02
1.8786750e-01 -5.6508678e-02 -2.8591933e-02
1.6463250e-01 -4.7112211e-02 -2.6148100e-02
1.4286400e-01 -3.8016000e-02 -2.3412500e-02
1.2256200e-01 -2.9220044e-02 -2.0385133e-02
1.0372650e-01 -2.0724344e-02 -1.7066000e-02
8.6357500e-02 -1.2528900e-02 -1.3455100e-02
8.6357500e-02 -1.2528900e-02 -1.3455100e-02
7.1805389e-02 -7.2392722e-03 -9.6845189e-03
5.8052056e-02 -2.2974089e-03 -5.9380389e-03
4.5097500e-02 2.2966900e-03 -2.2156600e-03
3.2941722e-02 6.5430244e-03 1.4826178e-03
2.1584722e-02 1.0441594e-02 5.1567944e-03
1.1026500e-02 1.3992400e-02 8.8068700e-03
1.5429300e+00 7.3628900e-01 9.0971300e-02
1.5291078e+00 7.2857600e-01 9.5601722e-02
1.5131844e+00 7.1772867e-01 1.0135296e-01
1.4951600e+00 7.0374700e-01 1.0822500e-01
1.4750344e+00 6.8663100e-01 1.1621786e-01
1.4528078e+00 6.6638067e-01 1.2533152e-01
1.4284800e+00 6.4299600e-01 1.3556600e-01
1.4284800e+00 6.4299600e-01 1.3556600e-01
1.4089289e+00 6.3170589e-01 1.4110267e-01
1.3880922e+00 6.2009356e-01 1.4598833e-01
1.3659700e+00 6.0815900e-01 1.5022300e-01
1.3425622e+00 5.9590222e-01 1.5380667e-01
1.3178689e+00 5.8332322e-01 1.5673933e-01
1.2918900e+00 5.7042200e-01 1.5902100e-01
1.2918900e+00 5.7042200e-01 1.5902100e-01
1.2654756e+00 5.5495300e-01 1.6082878e-01
1.2369722e+00 5.3836133e-01 1.6076111e-01
1.2063800e+00 5.2064700e-01 1.5881800e-01
1.1736989e+00 5.0181000e-01 1.5499944e-01
1.1389289e+00 4.8185033e-01 1.4930544e-01
1.1020700e+00 4.6076800e-01 1.4173600e-01
1.1020700e+00 4.6076800e-01 1.4173600e-01
1.0694878e+00 4.3699333e-01 1.3315556e-01
1.0407244e+00 4.1289833e-01 1.2704389e-01
1.0157800e+00 3.8848300e-01 1.2340100e-01
9.9465444e-01 3.6374733e-01 1.2222689e-01
9.7734778e-01 3.3869133e-01 1.2352156e-01
9.6386000e-01 3.1331500e-01 1.2728500e-01
9.6386000e-01 3.1331500e-01 1.2728500e-01
9.4718056e-01 2.8938822e-01 1.2794900e-01
9.3013422e-01 2.6613122e-01 1.2760333e-01
9.1272100e-01 2.4354400e-01 1.2624800e-01
8.9494089e-01 2.2162656e-01 1.2388300e-01
8.7679389e-01 2.0037889e-01 1.2050833e-01
8.5828000e-01 1.7980100e-01 1.1612400e-01
8.5828000e-01 1.7980100e-01 1.1612400e-01
8.4181733e-01 1.5913344e-01 1.1481234e-01
8.2424100e-01 1.3877978e-01 1.1261101e-01
8.0555100e-01 1.1874000e-01 1.0952000e-01
7.8574733e-01 9.9014111e-02 1.0553931e-01
7.6483000e-01 7.9602111e-02 1.0066894e-01
7.4279900e-01 6.0504000e-02 9.4908900e-02
7.4279900e-01 6.0504000e-02 9.4908900e-02
7.1847200e-01 4.2603378e-02 8.6353544e-02
6.9172633e-01 2.6004144e-02 7.7014844e-02
6.6256200e-01 1.0706300e-02 6.6892800e-02
6.3097900e-01 -3.2901556e-03 5.5987411e-02
5.9697733e-01 -1.5985222e-02 4.4298678e-02
5.6055700e-01 -2.7378900e-02 3.1826600e-02
5.6055700e-01 -2.7378900e-02 3.1826600e-02
5.1850678e-01 -3.6528978e-02 1.9853533e-02
4.7658611e-01 -4.3427511e-02 9.7475867e-03
4.3479500e-01 -4.8074500e-02 1.5087600e-03
3.9313344e-01 -5.0469944e-02 -4.8629467e-03
3.5160144e-01 -5.0613844e-02 -9.3675333e-03
3.1019900e-01 -4.8506200e-02 -1.2005000e-02
3.1019900e-01 -4.8506200e-02 -1.2005000e-02
2.7312833e-01 -4.3301964e-02 -1.4867133e-02
2.3840767e-01 -3.7573664e-02 -1.7002167e-02
2.0603700e-01 -3.1321300e-02 -1.8410100e-02
1.7601633e-01 -2.4544871e-02 -1.9090933e-02
1.4834567e-01 -1.7244378e-02 -1.9044667e-02
1.2302500e-01 -9.4198200e-03 -1.8271300e-02
1.2302500e-01 -9.4198200e-03 -1.8271300e-02
1.0035535e-01 -5.7742994e-03 -1.4452378e-02
7.8785250e-02 -2.7143778e-03 -1.0377718e-02
5.8314700e-02 -2.4005500e-04 -6.0473200e-03
3.8943700e-02 1.6486689e-03 -1.4611844e-03
2.0672250e-02 2.9517939e-03 3.3806889e-03
3.5003500e-03 3.6693200e-03 8.4783000e-03
1.5412200e+00 7.8459400e-01 -3.6877400e-02
1.5601967e+00 7.8872922e-01 -2.6435183e-02
1.5781133e+00 7.9038489e-01 -1.6439100e-02
1.5949700e+00 7.8956100e-01 -6.8891500e-03
1.6107667e+00 7.8625756e-01 2.2146667e-03
1.6255033e+00 7.8047456e-01 1.0872350e-02
1.6391800e+00 7.7221200e-01 1.9083900e-02
1.6391800e+00 7.7221200e-01 1.9083900e-02
1.6505356e+00 7.5593411e-01 2.3933656e-02
1.6608722e+00 7.3798411e-01 2.6291289e-02
1.6701900e+00 7.1836200e-01 2.6156800e-02
1.6784889e+00 6.9706778e-01 2.3530189e-02
1.6857689e+00 6.7410144e-01 1.8411456e-02
1.6920300e+00 6.4946300e-01 1.0800600e-02
1.6920300e+00 6.4946300e-01 1.0800600e-02
1.6977411e+00 6.2277300e-01 4.1877667e-03
1.7022044e+00 5.9966500e-01 -1.6724067e-03
1.7054200e+00 5.8013900e-01 -6.7799200e-03
1.7073878e+00 5.6419500e-01 -1.1134773e-02
1.7081078e+00 5.5183300e-01 -1.4736967e-02
1.7075800e+00 5.4305300e-01 -1.7586500e-02
1.7075800e+00 5.4305300e-01 -1.7586500e-02
1.7074989e+00 5.4472633e-01 -1.7528530e-02
1.7085256e+00 5.4671967e-01 -1.6886630e-02
1.7106600e+00 5.4903300e-01 -1.5660800e-02
1.7139022e+00 5.5166633e-01 -1.3851040e-02
1.7182522e+00 5.5461967e-01 -1.1457350e-02
1.7237100e+00 5.5789300e-01 -8.4797300e-03
1.5008100e+00 7.6866000e-01 2.4432300e-02
1.5108467e+00 7.6796956e-01 4.0954467e-02
1.5196767e+00 7.6539722e-01 5.5303700e-02
1.5273000e+00 7.6094300e-01 6.7480000e-02
1.5337167e+00 7.5460689e-01 7.7483367e-02
1.5389267e+00 7.4638889e-01 8.5313800e-02
1.5429300e+00 7.3628900e-01 9.0971300e-02
1.7785300e+00 2.3458800e-01 -6.3228800e-02
1.7610456e+00 2.0772429e-01 -6.0935844e-02
1.7429456e+00 1.8184096e-01 -5.7756811e-02
1.7242300e+00 1.5693800e-01 -5.3691700e-02
1.7048989e+00 1.3301542e-01 -4.8740511e-02
1.6849522e+00 1.1007322e-01 -4.2903244e-02
1.6643900e+00 8.8111400e-02 -3.6179900e-02
1.6643900e+00 8.8111400e-02 -3.6179900e-02
1.6531767e+00 7.5077667e-02 -3.3382901e-02
1.6402667e+00 6.3412133e-02 -2.8811401e-02
1.6256600e+00 5.3114800e-02 -2.2465400e-02
1.6093567e+00 4.4185667e-02 -1.4344898e-02
1.5913567e+00 3.6624733e-02 -4.4498944e-03
1.5716600e+00 3.0432000e-02 7.2196100e-03
1.5716600e+00 3.0432000e-02 7.2196100e-03
1.5491144e+00 2.2933268e-02 1.7707317e-02
1.5259844e+00 1.6243468e-02 2.7124847e-02
1.5022700e+00 1.0362600e-02 3.5472200e-02
1.4779711e+00 5.2906644e-03 4.2749377e-02
1.4530878e+00 1.0276611e-03 4.8956377e-02
1.4276200e+00 -2.4264100e-03 5.4093200e-02
1.4276200e+00 -2.4264100e-03 5.4093200e-02
1.3940022e+00 -5.7846944e-03 5.7677122e-02
1.3598589e+00 -8.5493911e-03 5.9575522e-02
1.3251900e+00 -1.0720500e-02 5.9788400e-02
1.2899956e+00 -1.2298021e-02 5.8315756e-02
1.2542756e+00 -1.3281954e-02 5.5157589e-02
1.2180300e+00 -1.3672300e-02 5.0313900e-02
1.2180300e+00 -1.3672300e-02 5.0313900e-02
1.1875689e+00 -1.1777207e-02 4.6598700e-02
1.1576922e+00 -9.2181333e-03 4.2553267e-02
1.1284000e+00 -5.9950800e-03 3.8177600e-02
1.0996922e+00 -2.1080467e-03 3.3471700e-02
1.0715689e+00 2.4429667e-03 2.8435567e-02
1.0440300e+00 7.6579600e-03 2.3069200e-02
1.0440300e+00 7.6579600e-03 2.3069200e-02
1.0161086e+00 1.1787767e-02 1.6465700e-02
9.8794256e-01 1.6310713e-02 9.8339000e-03
9.5953200e-01 2.1226800e-02 3.1738000e-03
9.3087689e-01 2.6536027e-02 -3.5146000e-03
9.0197722e-01 3.2238393e-02 -1.0231300e-02
8.7283300e-01 3.8333900e-02 -1.6976300e-02
8.7283300e-01 3.8333900e-02 -1.6976300e-02
8.4603400e-01 4.3243789e-02 -2.3258844e-02
8.1729333e-01 4.9112622e-02 -2.8660878e-02
7.8661100e-01 5.5940400e-02 -3.3182400e-02
7.5398700e-01 6.3727122e-02 -3.6823411e-02
7.1942133e-01 7.2472789e-02 -3.9583911e-02
6.8291400e-01 8.2177400e-02 -4.1463900e-02
6.8291400e-01 8.2177400e-02 -4.1463900e-02
6.4091022e-01 9.4659556e-02 -4.1326100e-02
5.9988689e-01 1.0480409e-01 -4.0582167e-02
5.5984400e-01 1.1261100e-01 -3.9232100e-02
5.2078156e-01 1.1808029e-01 -3.7275900e-02
4.8269956e-01 1.2121196e-01 -3.4713567e-02
4.4559800e-01 1.2200600e-01 -3.1545100e-02
4.4559800e-01 1.2200600e-01 -3.1545100e-02
4.0558222e-01 1.2017082e-01 -2.7988978e-02
3.6785322e-01 1.1685616e-01 -2.4209111e-02
3.3241100e-01 1.1206200e-01 -2.0205500e-02
2.9925556e-01 1.0578836e-01 -1.5978144e-02
2.6838689e-01 9.8035222e-02 -1.1527044e-02
2.3980500e-01 8.8802600e-02 -6.8522000e-03
2.3980500e-01 8.8802600e-02 -6.8522000e-03
2.1121204e-01 7.9674233e-02 4.7830000e-04
1.8400204e-01 7.0407067e-02 7.2399667e-03
1.5817500e-01 6.1001100e-02 1.3432800e-02
1.3373091e-01 5.1456333e-02 1.9056800e-02
1.1066978e-01 4.1772767e-02 2.4111967e-02
8.8991600e-02 3.1950400e-02 2.8598300e-02
8.8991600e-02 3.1950400e-02 2.8598300e-02
7.7839611e-02 2.7385144e-02 2.4278456e-02
6.6136678e-02 2.1772344e-02 1.9844923e-02
5.3882800e-02 1.5112000e-02 1.5297700e-02
4.1077978e-02 7.4041111e-03 1.0636788e-02
2.7722211e-02 -1.3513222e-03 5.8621856e-03
1.3815500e-02 -1.1154300e-02 9.7389400e-04
5.5863300e+00 3.7549600e-01 1.1326600e-01
5.5757433e+00 3.4475833e-01 1.2251744e-01
5.5643933e+00 3.1516467e-01 1.3154978e-01
5.5522800e+00 2.8671500e-01 1.4036300e-01
5.5394033e+00 2.5940933e-01 1.4895711e-01
5.5257633e+00 2.3324767e-01 1.5733211e-01
5.5113600e+00 2.0823000e-01 1.6548800e-01
5.5113600e+00 2.0823000e-01 1.6548800e-01
5.4985000e+00 1.9115356e-01 1.7135733e-01
5.4851700e+00 1.7858356e-01 1.7672567e-01
5.4713700e+00 1.7052000e-01 1.8159300e-01
5.4571000e+00 1.6696289e-01 1.8595933e-01
5.4423600e+00 1.6791222e-01 1.8982467e-01
5.4271500e+00 1.7336800e-01 1.9318900e-01
5.4271500e+00 1.7336800e-01 1.9318900e-01
5.4122467e+00 1.7810333e-01 1.9564178e-01
5.3958833e+00 1.8347733e-01 1.9825011e-01
5.3780600e+00 1.8949000e-01 2.0101400e-01
5.3587767e+00 1.9614133e-01 2.0393344e-01
5.3380333e+00 2.0343133e-01 2.0700844e-01
5.3158300e+00 2.1136000e-01 2.1023900e-01
5.3158300e+00 2.1136000e-01 2.1023900e-01
5.2859156e+00 2.2074478e-01 2.1632667e-01
5.2573522e+00 2.2550511e-01 2.2222300e-01
5.2301400e+00 2.2564100e-01 2.2792800e-01
5.2042789e+00 2.2115244e-01 2.3344167e-01
5.1797689e+00 2.1203944e-01 2.3876400e-01
5.1566100e+00 1.9830200e-01 2.4389500e-01
5.1566100e+00 1.9830200e-01 2.4389500e-01
5.1382256e+00 1.8227487e-01 2.4476567e-01
5.1208156e+00 1.6578087e-01 2.4363733e-01
5.1043800e+00 1.4882000e-01 2.4051000e-01
5.0889189e+00 1.3139227e-01 2.3538367e-01
5.0744322e+00 1.1349767e-01 2.2825833e-01
5.0609200e+00 9.5136200e-02 2.1913400e-01
5.0609200e+00 9.5136200e-02 2.1913400e-01
5.0388444e+00 1.1276311e-01 2.2097900e-01
5.0147911e+00 1.2945971e-01 2.2170167e-01
4.9887600e+00 1.4522600e-01 2.2130200e-01
4.9607511e+00 1.6006198e-01 2.1978000e-01
4.9307644e+00 1.7396764e-01 2.1713567e-01
4.8988000e+00 1.8694300e-01 2.1336900e-01
4.8988000e+00 1.8694300e-01 2.1336900e-01
4.8676900e+00 1.9543700e-01 2.0443611e-01
4.8385967e+00 2.0011233e-01 1.9439611e-01
4.8115200e+00 2.0096900e-01 1.8324900e-01
4.7864600e+00 1.9800700e-01 1.7099478e-01
4.7634167e+00 1.9122633e-01 1.5763344e-01
4.7423900e+00 1.8062700e-01 1.4316500e-01
4.7423900e+00 1.8062700e-01 1.4316500e-01
4.7240333e+00 1.6576954e-01 1.3396004e-01
4.7040633e+00 1.5051121e-01 1.2402604e-01
4.6824800e+00 1.3485200e-01 1.1336300e-01
4.6592833e+00 1.1879191e-01 1.0197091e-01
4.6344733e+00 1.0233094e-01 8.9849778e-02
4.6080500e+00 8.5469100e-02 7.6999600e-02
4.6080500e+00 8.5469100e-02 7.6999600e-02
4.5755433e+00 6.9700911e-02 6.0667911e-02
4.5404900e+00 5.8254778e-02 4.5902944e-02
4.5028900e+00 5.1130700e-02 3.2704700e-02
4.4627433e+00 4.8328678e-02 2.1073178e-02
4.4200500e+00 4.9848711e-02 1.1008378e-02
4.3748100e+00 5.5690800e-02 2.5103000e-03
4.3748100e+00 5.5690800e-02 2.5103000e-03
4.3302700e+00 6.9947833e-02 -6.6048222e-04
4.2897967e+00 8.3967667e-02 -3.0691422e-03
4.2533900e+00 9.7750300e-02 -4.7156800e-03
4.2210500e+00 1.1129573e-01 -5.6000956e-03
4.1927767e+00 1.2460397e-01 -5.7223889e-03
4.1685700e+00 1.3767500e-01 -5.0825600e-03
4.2493100e+00 1.8091000e-01 -3.2260700e-02
4.2416478e+00 1.6912778e-01 -3.0456660e-02
4.2316678e+00 1.5917611e-01 -2.7562360e-02
4.2193700e+00 1.5105500e-01 -2.3577800e-02
4.2047544e+00 1.4476444e-01 -1.8502980e-02
4.1878211e+00 1.4030444e-01 -1.2337900e-02
4.1685700e+00 1.3767500e-01 -5.0825600e-03
5.3192600e+00 4.0787900e-01 1.1736700e-01
5.3023322e+00 3.9549622e-01 1.0624309e-01
5.2852322e+00 3.8280022e-01 9.4412356e-02
5.2679600e+00 3.6979100e-01 8.1874800e-02
5.2505156e+00 3.5646856e-01 6.8630422e-02
5.2328989e+00 3.4283289e-01 5.4679222e-02
5.2151100e+00 3.2888400e-01 4.0021200e-02
5.2151100e+00 3.2888400e-01 4.0021200e-02
5.1977333e+00 3.1143522e-01 2.5095734e-02
5.1807833e+00 2.9499156e-01 1.3966941e-02
5.1642600e+00 2.7955300e-01 6.6348200e-03
5.1481633e+00 2.6511956e-01 3.0993711e-03
5.1324933e+00 2.5169122e-01 3.3605944e-03
5.1172500e+00 2.3926800e-01 7.4184900e-03
5.1172500e+00 2.3926800e-01 7.4184900e-03
5.0940433e+00 2.3458489e-01 2.5490717e-02
5.0692867e+00 2.3158222e-01 4.3695620e-02
5.0429800e+00 2.3026000e-01 6.2033200e-02
5.0151233e+00 2.3061822e-01 8.0503457e-02
4.9857167e+00 2.3265689e-01 9.9106390e-02
4.9547600e+00 2.3637600e-01 1.1784200e-01
4.9547600e+00 2.3637600e-01 1.1784200e-01
4.9251811e+00 2.4303956e-01 1.3788500e-01
4.8942444e+00 2.4807689e-01 1.5796733e-01
4.8619500e+00 2.5148800e-01 1.7808900e-01
4.8282978e+00 2.5327289e-01 1.9825000e-01
4.7932878e+00 2.5343156e-01 2.1845033e-01
4.7569200e+00 2.5196400e-01 2.3869000e-01
4.7569200e+00 2.5196400e-01 2.3869000e-01
4.7175367e+00 2.3359522e-01 2.3324864e-01
4.6752600e+00 2.1841256e-01 2.1991231e-01
4.6300900e+00 2.0641600e-01 1.9868100e-01
4.5820267e+00 1.9760556e-01 1.6955471e-01
4.5310700e+00 1.9198122e-01 1.3253344e-01
4.4772200e+00 1.8954300e-01 8.7617200e-02
4.4772200e+00 1.8954300e-01 8.7617200e-02
4.4293600e+00 1.9092944e-01 5.4626244e-02
4.3854500e+00 1.9118578e-01 2.6839811e-02
4.3454900e+00 1.9031200e-01 4.2579000e-03
4.3094800e+00 1.8830811e-01 -1.3119489e-02
4.2774200e+00 1.8517411e-01 -2.5292356e-02
4.2493100e+00 1.8091000e-01 -3.2260700e-02
3.1149600e+00 3.2129000e-01 -4.1618800e-02
3.1452311e+00 2.9640156e-01 -3.6188589e-02
3.1809578e+00 2.7270756e-01 -3.3260822e-02
3.2221400e+00 2.5020800e-01 -3.2835500e-02
3.2687778e+00 2.2890289e-01 -3.4912622e-02
3.3208711e+00 2.0879222e-01 -3.9492189e-02
3.3784200e+00 1.8987600e-01 -4.6574200e-02
3.3784200e+00 1.8987600e-01 -4.6574200e-02
3.4369800e+00 1.8825500e-01 -4.7014967e-02
3.4945500e+00 1.9170233e-01 -4.5785667e-02
3.5511300e+00 2.0021800e-01 -4.2886300e-02
3.6067200e+00 2.1380200e-01 -3.8316867e-02
3.6613200e+00 2.3245433e-01 -3.2077367e-02
3.7149300e+00 2.5617500e-01 -2.4167800e-02
3.7149300e+00 2.5617500e-01 -2.4167800e-02
3.7642189e+00 2.7988122e-01 -2.0173670e-02
3.8140322e+00 2.9843689e-01 -1.6788370e-02
3.8643700e+00 3.1184200e-01 -1.4011900e-02
3.9152322e+00 3.2009656e-01 -1.1844260e-02
3.9666189e+00 3.2320056e-01 -1.0285450e-02
4.0185300e+00 3.2115400e-01 -9.3354700e-03
4.0185300e+00 3.2115400e-01 -9.3354700e-03
4.0684933e+00 3.0150722e-01 -1.1569961e-02
4.1138567e+00 2.8036956e-01 -1.4439004e-02
4.1546200e+00 2.5774100e-01 -1.7942600e-02
4.1907833e+00 2.3362156e-01 -2.2080748e-02
4.2223467e+00 2.0801122e-01 -2.6853448e-02
4.2493100e+00 1.8091000e-01 -3.2260700e-02
2.5893300e+00 9.2663100e-01 -2.7510600e-02