# vtk DataFile Version 2.0
test
ASCII
DATASET POLYDATA
POINTS 4361 float
6.4911922e+00 7.4802885e+00 1.1857169e+01
6.6101011e+00 7.5276792e+00 1.1736221e+01
6.7300621e+00 7.5732024e+00 1.1615637e+01
6.8510750e+00 7.6168581e+00 1.1495418e+01
6.9731400e+00 7.6586461e+00 1.1375563e+01
7.0962569e+00 7.6985665e+00 1.1256074e+01
7.2204258e+00 7.7366194e+00 1.1136949e+01
7.2204258e+00 7.7366194e+00 1.1136949e+01
7.3471723e+00 7.7857079e+00 1.1021580e+01
7.4793525e+00 7.8327720e+00 1.0912946e+01
7.6169665e+00 7.8778115e+00 1.0811049e+01
7.7600141e+00 7.9208266e+00 1.0715887e+01
7.9084955e+00 7.9618171e+00 1.0627462e+01
8.0624106e+00 8.0007831e+00 1.0545772e+01
8.0624106e+00 8.0007831e+00 1.0545772e+01
8.2305536e+00 8.0310624e+00 1.0489062e+01
8.4004907e+00 8.0599007e+00 1.0449575e+01
8.5722220e+00 8.0872980e+00 1.0427310e+01
8.7457475e+00 8.1132544e+00 1.0422268e+01
8.9210672e+00 8.1377699e+00 1.0434448e+01
9.0981811e+00 8.1608444e+00 1.0463851e+01
9.0981811e+00 8.1608444e+00 1.0463851e+01
9.2729912e+00 8.1800427e+00 1.0490592e+01
9.4474256e+00 8.1976649e+00 1.0520435e+01
9.6214842e+00 8.2137112e+00 1.0553380e+01
9.7951671e+00 8.2281815e+00 1.0589427e+01
9.9684742e+00 8.2410758e+00 1.0628575e+01
1.0141406e+01 8.2523941e+00 1.0670826e+01
1.0141406e+01 8.2523941e+00 1.0670826e+01
1.0313909e+01 8.2618408e+00 1.0715830e+01
1.0487400e+01 8.2696964e+00 1.0756029e+01
1.0661878e+01 8.2759611e+00 1.0791421e+01
1.0837345e+01 8.2806347e+00 1.0822008e+01
1.1013799e+01 8.2837173e+00 1.0847789e+01
1.1191240e+01 8.2852089e+00 1.0868764e+01
1.1191240e+01 8.2852089e+00 1.0868764e+01
1.1371228e+01 8.2839403e+00 1.0881436e+01
1.1549148e+01 8.2810649e+00 1.0879278e+01
1.1724999e+01 8.2765827e+00 1.0862290e+01
1.1898783e+01 8.2704937e+00 1.0830472e+01
1.2070498e+01 8.2627979e+00 1.0783825e+01
1.2240145e+01 8.2534952e+00 1.0722347e+01
1.2240145e+01 8.2534952e+00 1.0722347e+01
1.2401877e+01 8.2426887e+00 1.0642389e+01
1.2555081e+01 8.2345835e+00 1.0551257e+01
1.2699757e+01 8.2291797e+00 1.0448951e+01
1.2835905e+01 8.2264773e+00 1.0335472e+01
1.2963526e+01 8.2264763e+00 1.0210820e+01
1.3082618e+01 8.2291766e+00 1.0074994e+01
1.3082618e+01 8.2291766e+00 1.0074994e+01
1.3187205e+01 8.2602183e+00 9.9326129e+00
1.3291303e+01 8.2870150e+00 9.7890105e+00
1.3394914e+01 8.3095668e+00 9.6441864e+00
1.3498036e+01 8.3278736e+00 9.4981409e+00
1.3600670e+01 8.3419355e+00 9.3508738e+00
1.3702816e+01 8.3517524e+00 9.2023851e+00
1.3702816e+01 8.3517524e+00 9.2023851e+00
1.3590975e+01 8.2738956e+00 9.0726373e+00
1.3478769e+01 8.1916904e+00 8.9468163e+00
1.3366198e+01 8.1051368e+00 8.8249220e+00
1.3253262e+01 8.0142348e+00 8.7069545e+00
1.3139960e+01 7.9189844e+00 8.5929137e+00
1.3026293e+01 7.8193856e+00 8.4827995e+00
1.3026293e+01 7.8193856e+00 8.4827995e+00
1.2911311e+01 7.7424794e+00 8.3572219e+00
1.2799633e+01 7.6638238e+00 8.2301890e+00
1.2691259e+01 7.5834187e+00 8.1017008e+00
1.2586188e+01 7.5012642e+00 7.9717574e+00
1.2484422e+01 7.4173603e+00 7.8403587e+00
1.2385960e+01 7.3317070e+00 7.7075048e+00
1.2385960e+01 7.3317070e+00 7.7075048e+00
1.2292319e+01 7.2508095e+00 7.5675433e+00
1.2205745e+01 7.1675246e+00 7.4254991e+00
1.2126239e+01 7.0818525e+00 7.2813723e+00
1.2053800e+01 6.9937930e+00 7.1351627e+00
1.1988430e+01 6.9033462e+00 6.9868705e+00
1.1930127e+01 6.8105121e+00 6.8364956e+00
1.1930127e+01 6.8105121e+00 6.8364956e+00
1.1886896e+01 6.7150939e+00 6.6841491e+00
1.1851463e+01 6.6181257e+00 6.5314153e+00
1.1823829e+01 6.5196075e+00 6.3782941e+00
1.1803992e+01 6.4195393e+00 6.2247856e+00
1.1791953e+01 6.3179211e+00 6.0708898e+00
1.1787713e+01 6.2147530e+00 5.9166067e+00
1.1787713e+01 6.2147530e+00 5.9166067e+00
1.1792478e+01 6.1099601e+00 5.7639389e+00
1.1804041e+01 6.0031939e+00 5.6139204e+00
1.1822401e+01 5.8944545e+00 5.4665512e+00
1.1847559e+01 5.7837417e+00 5.3218314e+00
1.1879514e+01 5.6710556e+00 5.1797608e+00
1.1918266e+01 5.5563962e+00 5.0403396e+00
1.1918266e+01 5.5563962e+00 5.0403396e+00
1.1958846e+01 5.4404337e+00 4.9032283e+00
1.2001039e+01 5.3238622e+00 4.7671744e+00
1.2044847e+01 5.2066816e+00 4.6321776e+00
1.2090268e+01 5.0888919e+00 4.4982382e+00
1.2137304e+01 4.9704932e+00 4.3653560e+00
1.2185953e+01 4.8514855e+00 4.2335310e+00
1.2185953e+01 4.8514855e+00 4.2335310e+00
1.2233288e+01 4.7314474e+00 4.1025603e+00
1.2277116e+01 4.6085743e+00 3.9728457e+00
1.2317434e+01 4.4828659e+00 3.8443870e+00
1.2354245e+01 4.3543224e+00 3.7171844e+00
1.2387547e+01 4.2229437e+00 3.5912379e+00
1.2417340e+01 4.0887299e+00 3.4665474e+00
1.2417340e+01 4.0887299e+00 3.4665474e+00
1.2442844e+01 3.9517371e+00 3.3436485e+00
1.2461718e+01 3.8140033e+00 3.2210963e+00
1.2473965e+01 3.6755284e+00 3.0988910e+00
1.2479582e+01 3.5363125e+00 2.9770324e+00
1.2478570e+01 3.3963555e+00 2.8555206e+00
1.2470930e+01 3.2556575e+00 2.7343557e+00
1.2470930e+01 3.2556575e+00 2.7343557e+00
1.2455040e+01 3.1129278e+00 2.6152722e+00
1.2431214e+01 2.9701619e+00 2.4984292e+00
1.2399451e+01 2.8273598e+00 2.3838266e+00
1.2359751e+01 2.6845215e+00 2.2714645e+00
1.2312114e+01 2.5416470e+00 2.1613428e+00
1.2256540e+01 2.3987363e+00 2.0534616e+00
1.2256540e+01 2.3987363e+00 2.0534616e+00
1.2194003e+01 2.2598536e+00 1.9446122e+00
1.2126082e+01 2.1220444e+00 1.8379780e+00
1.2052779e+01 1.9853087e+00 1.7335591e+00
1.1974092e+01 1.8496464e+00 1.6313555e+00
1.1890022e+01 1.7150577e+00 1.5313671e+00
1.1800570e+01 1.5815424e+00 1.4335939e+00
1.1800570e+01 1.5815424e+00 1.4335939e+00
1.1701643e+01 1.4504649e+00 1.3408419e+00
1.1600155e+01 1.3202628e+00 1.2500456e+00
1.1496105e+01 1.1909362e+00 1.1612048e+00
1.1389494e+01 1.0624851e+00 1.0743198e+00
1.1280320e+01 9.3490936e-01 9.8939035e-01
1.1168585e+01 8.0820912e-01 9.0641657e-01
1.1168585e+01 8.0820912e-01 9.0641657e-01
1.1058303e+01 6.7802529e-01 8.2344203e-01
1.0947715e+01 5.4821442e-01 7.4108893e-01
1.0836822e+01 4.1877650e-01 6.5935729e-01
1.0725624e+01 2.8971155e-01 5.7824709e-01
1.0614120e+01 1.6101954e-01 4.9775834e-01
1.0502311e+01 3.2700500e-02 4.1789103e-01
4.1190700e+00 6.4979821e+00 1.1751036e+01
4.0720931e+00 6.4466498e+00 1.1572838e+01
4.0237564e+00 6.3892122e+00 1.1397323e+01
3.9740598e+00 6.3256695e+00 1.1224490e+01
3.9230034e+00 6.2560216e+00 1.1054339e+01
3.8705872e+00 6.1802686e+00 1.0886871e+01
3.8168112e+00 6.0984103e+00 1.0722086e+01
3.8168112e+00 6.0984103e+00 1.0722086e+01
3.7764763e+00 6.0359827e+00 1.0545705e+01
3.7418107e+00 5.9713903e+00 1.0369400e+01
3.7128146e+00 5.9046331e+00 1.0193170e+01
3.6894878e+00 5.8357111e+00 1.0017015e+01
3.6718305e+00 5.7646244e+00 9.8409353e+00
3.6598426e+00 5.6913729e+00 9.6649312e+00
3.6598426e+00 5.6913729e+00 9.6649312e+00
3.6562534e+00 5.6135205e+00 9.4898461e+00
3.6600417e+00 5.5321572e+00 9.3175441e+00
3.6712076e+00 5.4472830e+00 9.1480250e+00
3.6897509e+00 5.3588977e+00 8.9812888e+00
3.7156718e+00 5.2670016e+00 8.8173357e+00
3.7489702e+00 5.1715945e+00 8.6561655e+00
3.7489702e+00 5.1715945e+00 8.6561655e+00
3.8023851e+00 5.0684176e+00 8.5031317e+00
3.8685689e+00 4.9626268e+00 8.3609199e+00
3.9475216e+00 4.8542223e+00 8.2295302e+00
4.0392432e+00 4.7432039e+00 8.1089625e+00
4.1437338e+00 4.6295717e+00 7.9992169e+00
4.2609933e+00 4.5133257e+00 7.9002934e+00
4.2609933e+00 4.5133257e+00 7.9002934e+00
4.3754099e+00 4.3984824e+00 7.8023417e+00
4.4898292e+00 4.2830833e+00 7.7052177e+00
4.6042512e+00 4.1671284e+00 7.6089215e+00
4.7186759e+00 4.0506176e+00 7.5134529e+00
4.8331034e+00 3.9335510e+00 7.4188121e+00
4.9475335e+00 3.8159286e+00 7.3249990e+00
4.9475335e+00 3.8159286e+00 7.3249990e+00
5.0632136e+00 3.6951860e+00 7.2352128e+00
5.1739269e+00 3.5718234e+00 7.1434183e+00
5.2796732e+00 3.4458407e+00 7.0496156e+00
5.3804527e+00 3.3172379e+00 6.9538045e+00
5.4762653e+00 3.1860150e+00 6.8559852e+00
5.5671109e+00 3.0521721e+00 6.7561576e+00
5.5671109e+00 3.0521721e+00 6.7561576e+00
5.6489396e+00 2.9164187e+00 6.6498237e+00
5.7196119e+00 2.7802951e+00 6.5382795e+00
5.7791278e+00 2.6438013e+00 6.4215251e+00
5.8274873e+00 2.5069374e+00 6.2995604e+00
5.8646904e+00 2.3697032e+00 6.1723855e+00
5.8907372e+00 2.2320989e+00 6.0400004e+00
5.8907372e+00 2.2320989e+00 6.0400004e+00
5.8996218e+00 2.0966366e+00 5.9030977e+00
5.8982274e+00 1.9627576e+00 5.7658390e+00
5.8865538e+00 1.8304620e+00 5.6282244e+00
5.8646012e+00 1.6997498e+00 5.4902536e+00
5.8323694e+00 1.5706210e+00 5.3519269e+00
5.7898586e+00 1.4430756e+00 5.2132442e+00
5.7898586e+00 1.4430756e+00 5.2132442e+00
5.7420090e+00 1.3191789e+00 5.0728565e+00
5.6902215e+00 1.1971465e+00 4.9324559e+00
5.6344960e+00 1.0769782e+00 4.7920422e+00
5.5748327e+00 9.5867416e-01 4.6516155e+00
5.5112315e+00 8.4223431e-01 4.5111758e+00
5.4436924e+00 7.2765866e-01 4.3707231e+00
5.4436924e+00 7.2765866e-01 4.3707231e+00
5.3745725e+00 6.0839923e-01 4.2349158e+00
5.3045365e+00 4.8896031e-01 4.0996752e+00
5.2335844e+00 3.6934190e-01 3.9650015e+00
5.1617161e+00 2.4954401e-01 3.8308944e+00
5.0889317e+00 1.2956664e-01 3.6973542e+00
5.0152312e+00 9.4097800e-03 3.5643807e+00
2.8984800e+00 6.3092144e+00 1.3819949e+01
2.9804541e+00 6.4201530e+00 1.3679993e+01
3.0738811e+00 6.5285393e+00 1.3549368e+01
3.1787611e+00 6.6343732e+00 1.3428075e+01
3.2950939e+00 6.7376548e+00 1.3316114e+01
3.4228796e+00 6.8383840e+00 1.3213485e+01
3.5621182e+00 6.9365609e+00 1.3120188e+01
3.5621182e+00 6.9365609e+00 1.3120188e+01
3.7309730e+00 7.0153871e+00 1.3065127e+01
3.9050703e+00 7.0831459e+00 1.3021958e+01
4.0844100e+00 7.1398374e+00 1.2990680e+01
4.2689922e+00 7.1854614e+00 1.2971292e+01
4.4588169e+00 7.2200181e+00 1.2963796e+01
4.6538840e+00 7.2435074e+00 1.2968191e+01
4.6538840e+00 7.2435074e+00 1.2968191e+01
4.8495291e+00 7.2586678e+00 1.2973335e+01
5.0411160e+00 7.2750176e+00 1.2961313e+01
5.2286448e+00 7.2925569e+00 1.2932124e+01
5.4121155e+00 7.3112857e+00 1.2885769e+01
5.5915280e+00 7.3312040e+00 1.2822248e+01
5.7668825e+00 7.3523118e+00 1.2741560e+01
5.7668825e+00 7.3523118e+00 1.2741560e+01
5.9158726e+00 7.3818489e+00 1.2619539e+01
6.0535540e+00 7.4081029e+00 1.2487367e+01
6.1799267e+00 7.4310739e+00 1.2345044e+01
6.2949906e+00 7.4507618e+00 1.2192570e+01
[...]
POINT_DATA 4361
VECTORS U float
3.1942900e+00 1.0174400e+00 -1.0088000e-02
3.2173633e+00 9.9333467e-01 2.6572333e-03
3.2388533e+00 9.6703900e-01 1.3447967e-02
3.2587600e+00 9.3855300e-01 2.2284200e-02
3.2770833e+00 9.0787667e-01 2.9165933e-02
3.2938233e+00 8.7501000e-01 3.4093167e-02
3.3089800e+00 8.3995300e-01 3.7065900e-02
3.3089800e+00 8.3995300e-01 3.7065900e-02
3.3205367e+00 8.1473378e-01 3.9571780e-02
3.3303367e+00 7.8795778e-01 3.8688180e-02
3.3383800e+00 7.5962500e-01 3.4415100e-02
3.3446667e+00 7.2973544e-01 2.6752540e-02
3.3491967e+00 6.9828911e-01 1.5700500e-02
3.3519700e+00 6.6528600e-01 1.2589800e-03
3.3519700e+00 6.6528600e-01 1.2589800e-03
3.3604722e+00 6.2629667e-01 -6.7490667e-03
3.3680222e+00 5.8972933e-01 -1.0307427e-02
3.3746200e+00 5.5558400e-01 -9.4161000e-03
3.3802656e+00 5.2386067e-01 -4.0750867e-03
3.3849589e+00 4.9455933e-01 5.7156133e-03
3.3887000e+00 4.6768000e-01 1.9956000e-02
3.3887000e+00 4.6768000e-01 1.9956000e-02
3.3915611e+00 4.4153100e-01 2.3268722e-02
3.3939911e+00 4.1719800e-01 2.6007789e-02
3.3959900e+00 3.9468100e-01 2.8173200e-02
3.3975578e+00 3.7398000e-01 2.9764956e-02
3.3986944e+00 3.5509500e-01 3.0783056e-02
3.3994000e+00 3.3802600e-01 3.1227500e-02
3.3994000e+00 3.3802600e-01 3.1227500e-02
3.3992267e+00 3.2170833e-01 3.4586389e-02
3.3990400e+00 3.0655600e-01 3.7191389e-02
3.3988400e+00 2.9256900e-01 3.9042500e-02
3.3986267e+00 2.7974733e-01 4.0139722e-02
3.3984000e+00 2.6809100e-01 4.0483056e-02
3.3981600e+00 2.5760000e-01 4.0072500e-02
3.3981600e+00 2.5760000e-01 4.0072500e-02
3.3977600e+00 2.4720567e-01 4.0081956e-02
3.3968567e+00 2.3821833e-01 3.8455389e-02
3.3954500e+00 2.3063800e-01 3.5192800e-02
3.3935400e+00 2.2446467e-01 3.0294189e-02
3.3911267e+00 2.1969833e-01 2.3759556e-02
3.3882100e+00 2.1633900e-01 1.5588900e-02
3.3882100e+00 2.1633900e-01 1.5588900e-02
3.3848711e+00 2.1463100e-01 7.8421556e-03
3.3798344e+00 2.1725333e-01 -8.2431111e-04
3.3731000e+00 2.2420600e-01 -1.0410500e-02
3.3646678e+00 2.3548900e-01 -2.0916411e-02
3.3545378e+00 2.5110233e-01 -3.2342044e-02
3.3427100e+00 2.7104600e-01 -4.4687400e-02
3.3427100e+00 2.7104600e-01 -4.4687400e-02
3.3226856e+00 3.1976433e-01 -5.9412167e-02
3.3048122e+00 3.6453733e-01 -7.3040600e-02
3.2890900e+00 4.0536500e-01 -8.5572700e-02
3.2755189e+00 4.4224733e-01 -9.7008467e-02
3.2640989e+00 4.7518433e-01 -1.0734790e-01
3.2548300e+00 5.0417600e-01 -1.1659100e-01
3.2548300e+00 5.0417600e-01 -1.1659100e-01
3.2378511e+00 4.8996711e-01 -1.0209887e-01
3.2191644e+00 4.7192444e-01 -8.3070833e-02
3.1987700e+00 4.5004800e-01 -5.9506900e-02
3.1766678e+00 4.2433778e-01 -3.1407067e-02
3.1528578e+00 3.9479378e-01 1.2286667e-03
3.1273400e+00 3.6141600e-01 3.8400300e-02
3.1273400e+00 3.6141600e-01 3.8400300e-02
3.0979911e+00 3.5178178e-01 6.1444611e-02
3.0671778e+00 3.4195678e-01 8.4592511e-02
3.0349000e+00 3.3194100e-01 1.0784400e-01
3.0011578e+00 3.2173444e-01 1.3119908e-01
2.9659511e+00 3.1133711e-01 1.5465774e-01
2.9292800e+00 3.0074900e-01 1.7822000e-01
2.9292800e+00 3.0074900e-01 1.7822000e-01
2.8903556e+00 2.9720222e-01 1.9695600e-01
2.8491989e+00 2.9330822e-01 2.1435800e-01
2.8058100e+00 2.8906700e-01 2.3042600e-01
2.7601889e+00 2.8447856e-01 2.4516000e-01
2.7123356e+00 2.7954289e-01 2.5856000e-01
2.6622500e+00 2.7426000e-01 2.7062600e-01
2.6622500e+00 2.7426000e-01 2.7062600e-01
2.6148611e+00 2.6830344e-01 2.7998089e-01
2.5653911e+00 2.6177444e-01 2.8656156e-01
2.5138400e+00 2.5467300e-01 2.9036800e-01
2.4602078e+00 2.4699911e-01 2.9140022e-01
2.4044944e+00 2.3875278e-01 2.8965822e-01
2.3467000e+00 2.2993400e-01 2.8514200e-01
2.3467000e+00 2.2993400e-01 2.8514200e-01
2.2897678e+00 2.1959311e-01 2.7816378e-01
2.2342611e+00 2.0767211e-01 2.7065744e-01
2.1801800e+00 1.9417100e-01 2.6262300e-01
2.1275244e+00 1.7908978e-01 2.5406044e-01
2.0762944e+00 1.6242844e-01 2.4496978e-01
2.0264900e+00 1.4418700e-01 2.3535100e-01
2.0264900e+00 1.4418700e-01 2.3535100e-01
1.9756467e+00 1.2506496e-01 2.2523189e-01
1.9249033e+00 1.0634219e-01 2.1417422e-01
1.8742600e+00 8.8018700e-02 2.0217800e-01
1.8237167e+00 7.0094489e-02 1.8924322e-01
1.7732733e+00 5.2569556e-02 1.7536989e-01
1.7229300e+00 3.5443900e-02 1.6055800e-01
1.7229300e+00 3.5443900e-02 1.6055800e-01
1.6712767e+00 1.8734489e-02 1.4532808e-01
1.6176367e+00 1.2938222e-03 1.3061274e-01
1.5620100e+00 -1.6878100e-02 1.1641200e-01
1.5043967e+00 -3.5781278e-02 1.0272584e-01
1.4447967e+00 -5.5415711e-02 8.9554278e-02
1.3832100e+00 -7.5781400e-02 7.6897300e-02
1.3832100e+00 -7.5781400e-02 7.6897300e-02
1.3202079e+00 -9.6092889e-02 6.5978811e-02
1.2559579e+00 -1.1395909e-01 5.5436278e-02
1.1904600e+00 -1.2938000e-01 4.5269700e-02
1.1237142e+00 -1.4235562e-01 3.5479078e-02
1.0557206e+00 -1.5288596e-01 2.6064411e-02
9.8647900e-01 -1.6097100e-01 1.7025700e-02
9.8647900e-01 -1.6097100e-01 1.7025700e-02
9.1714189e-01 -1.6705389e-01 1.0507683e-02
8.4975589e-01 -1.7070889e-01 5.5900367e-03
7.8432100e-01 -1.7193600e-01 2.2727600e-03
7.2083722e-01 -1.7073522e-01 5.5585333e-04
6.5930456e-01 -1.6710656e-01 4.3931667e-04
5.9972300e-01 -1.6105000e-01 1.9231500e-03
5.9972300e-01 -1.6105000e-01 1.9231500e-03
5.4555978e-01 -1.5002330e-01 6.6942556e-04
4.9531744e-01 -1.3843163e-01 -4.6478778e-04
4.4899600e-01 -1.2627500e-01 -1.4794900e-03
4.0659544e-01 -1.1355340e-01 -2.3746811e-03
3.6811578e-01 -1.0026683e-01 -3.1503611e-03
3.3355700e-01 -8.6415300e-02 -3.8065300e-03
3.3355700e-01 -8.6415300e-02 -3.8065300e-03
2.9659878e-01 -7.2116950e-02 -1.9819500e-03
2.6184778e-01 -5.8303783e-02 6.5280000e-05
2.2930400e-01 -4.4975800e-02 2.3351600e-03
1.9896744e-01 -3.2133000e-02 4.8276900e-03
1.7083811e-01 -1.9775383e-02 7.5428700e-03
1.4491600e-01 -7.9029500e-03 1.0480700e-02
1.4491600e-01 -7.9029500e-03 1.0480700e-02
1.2296213e-01 -7.1236111e-04 1.2211089e-02
1.0204540e-01 6.3088889e-03 1.3978089e-02
8.2165800e-02 1.3160800e-02 1.5781700e-02
6.3323333e-02 1.9843372e-02 1.7621922e-02
4.5518000e-02 2.6356606e-02 1.9498756e-02
2.8749800e-02 3.2700500e-02 2.1412200e-02
2.9009500e+00 1.2864700e+00 1.0648100e-01
2.8765600e+00 1.2713689e+00 1.1580389e-01
2.8485100e+00 1.2507489e+00 1.2788989e-01
2.8168000e+00 1.2246100e+00 1.4273900e-01
2.7814300e+00 1.1929522e+00 1.6035122e-01
2.7424000e+00 1.1557756e+00 1.8072656e-01
2.6997100e+00 1.1130800e+00 2.0386500e-01
2.6997100e+00 1.1130800e+00 2.0386500e-01
2.6659689e+00 1.0910196e+00 2.1601178e-01
2.6299356e+00 1.0686429e+00 2.2717878e-01
2.5916100e+00 1.0459500e+00 2.3736600e-01
2.5509922e+00 1.0229409e+00 2.4657344e-01
2.5080822e+00 9.9961556e-01 2.5480111e-01
2.4628800e+00 9.7597400e-01 2.6204900e-01
2.4628800e+00 9.7597400e-01 2.6204900e-01
2.4133311e+00 9.5053178e-01 2.6776811e-01
2.3595244e+00 9.2377144e-01 2.7022278e-01
2.3014600e+00 8.9569300e-01 2.6941300e-01
2.2391378e+00 8.6629644e-01 2.6533878e-01
2.1725578e+00 8.3558178e-01 2.5800011e-01
2.1017200e+00 8.0354900e-01 2.4739700e-01
2.1017200e+00 8.0354900e-01 2.4739700e-01
2.0401056e+00 7.6530367e-01 2.3495322e-01
1.9851489e+00 7.2574300e-01 2.2618589e-01
1.9368500e+00 6.8486700e-01 2.2109500e-01
1.8952089e+00 6.4267567e-01 2.1968056e-01
1.8602256e+00 5.9916900e-01 2.2194256e-01
1.8319000e+00 5.5434700e-01 2.2788100e-01
1.8319000e+00 5.5434700e-01 2.2788100e-01
1.7984044e+00 5.1191878e-01 2.2929800e-01
1.7638211e+00 4.7058244e-01 2.2839000e-01
1.7281500e+00 4.3033800e-01 2.2515700e-01
1.6913911e+00 3.9118544e-01 2.1959900e-01
1.6535444e+00 3.5312478e-01 2.1171600e-01
1.6146100e+00 3.1615600e-01 2.0150800e-01
1.6146100e+00 3.1615600e-01 2.0150800e-01
1.5774311e+00 2.7811390e-01 1.9424611e-01
1.5374978e+00 2.4034657e-01 1.8573011e-01
1.4948100e+00 2.0285400e-01 1.7596000e-01
1.4493678e+00 1.6563620e-01 1.6493578e-01
1.4011711e+00 1.2869317e-01 1.5265744e-01
1.3502200e+00 9.2024900e-02 1.3912500e-01
1.3502200e+00 9.2024900e-02 1.3912500e-01
1.2938019e+00 5.7406292e-02 1.2196509e-01
1.2336519e+00 2.6436374e-02 1.0393289e-01
1.1697700e+00 -8.8485400e-04 8.5028400e-02
1.1021562e+00 -2.4557392e-02 6.5251622e-02
1.0308106e+00 -4.4581241e-02 4.4602556e-02
9.5573300e-01 -6.0956400e-02 2.3081200e-02
9.5573300e-01 -6.0956400e-02 2.3081200e-02
8.7591089e-01 -7.0574578e-02 3.7602556e-03
7.9837122e-01 -7.7052144e-02 -1.1849411e-02
7.2311400e-01 -8.0389100e-02 -2.3747800e-02
6.5013922e-01 -8.0585444e-02 -3.1934911e-02
5.7944689e-01 -7.7641178e-02 -3.6410744e-02
5.1103700e-01 -7.1556300e-02 -3.7175300e-02
5.1103700e-01 -7.1556300e-02 -3.7175300e-02
4.5038200e-01 -6.3212578e-02 -3.7941433e-02
3.9391267e-01 -5.4197578e-02 -3.8011700e-02
3.4162900e-01 -4.4511300e-02 -3.7386100e-02
2.9353100e-01 -3.4153744e-02 -3.6064633e-02
2.4961867e-01 -2.3124911e-02 -3.4047300e-02
2.0989200e-01 -1.1424800e-02 -3.1334100e-02
2.0989200e-01 -1.1424800e-02 -3.1334100e-02
1.7299428e-01 -5.9468756e-03 -2.4402633e-02
1.3747162e-01 -1.2711489e-03 -1.6965800e-02
1.0332400e-01 2.6023800e-03 -9.0236000e-03
7.0551433e-02 5.6737111e-03 -5.7603333e-04
3.9153917e-02 7.9428444e-03 8.3769000e-03
9.1314500e-03 9.4097800e-03 1.7835200e-02
2.8984800e+00 1.3395100e+00 -9.9833700e-02
2.9297567e+00 1.3473744e+00 -8.0403338e-02
2.9591233e+00 1.3512511e+00 -6.1784338e-02
2.9865800e+00 1.3511400e+00 -4.3976700e-02
3.0121267e+00 1.3470411e+00 -2.6980424e-02
3.0357633e+00 1.3389544e+00 -1.0795511e-02
3.0574900e+00 1.3268800e+00 4.5780400e-03
3.0574900e+00 1.3268800e+00 4.5780400e-03
3.0745511e+00 1.3012422e+00 1.3578174e-02
3.0897678e+00 1.2733256e+00 1.8390194e-02
3.1031400e+00 1.2431300e+00 1.9014100e-02
3.1146678e+00 1.2106556e+00 1.5449891e-02
3.1243511e+00 1.1759022e+00 7.6975678e-03
3.1321900e+00 1.1388700e+00 -4.2428700e-03
3.1321900e+00 1.1388700e+00 -4.2428700e-03
3.1390533e+00 1.0982682e+00 -1.4467272e-02
3.1444900e+00 1.0637182e+00 -2.3004949e-02
3.1485000e+00 1.0352200e+00 -2.9855900e-02
3.1510833e+00 1.0127736e+00 -3.5020126e-02
3.1522400e+00 9.9637889e-01 -3.8497626e-02
3.1519700e+00 9.8603600e-01 -4.0288400e-02
3.1519700e+00 9.8603600e-01 -4.0288400e-02
3.1551178e+00 9.9212111e-01 -3.6001278e-02
3.1598278e+00 9.9786578e-01 -3.1415644e-02
3.1661000e+00 1.0032700e+00 -2.6531500e-02
3.1739344e+00 1.0083338e+00 -2.1348844e-02
3.1833311e+00 1.0130571e+00 -1.5867678e-02
3.1942900e+00 1.0174400e+00 -1.0088000e-02
2.8469900e+00 1.3157900e+00 7.2968300e-03
2.8598556e+00 1.3177422e+00 3.3668294e-02
2.8711722e+00 1.3169589e+00 5.6103451e-02
2.8809400e+00 1.3134400e+00 7.4602300e-02
2.8891589e+00 1.3071856e+00 8.9164841e-02
2.8958289e+00 1.2981956e+00 9.9791074e-02
2.9009500e+00 1.2864700e+00 1.0648100e-01
3.2548300e+00 5.0417600e-01 -1.1659100e-01
3.2128789e+00 4.5062633e-01 -1.1206368e-01
3.1687756e+00 3.9858700e-01 -1.0531264e-01
3.1225200e+00 3.4805800e-01 -9.6337900e-02
3.0741122e+00 2.9903933e-01 -8.5139444e-02
3.0235522e+00 2.5153100e-01 -7.1717278e-02
2.9708400e+00 2.0553300e-01 -5.6071400e-02
2.9708400e+00 2.0553300e-01 -5.6071400e-02
2.9395889e+00 1.7503772e-01 -4.6220000e-02
2.9061022e+00 1.4795139e-01 -3.3985800e-02
2.8703800e+00 1.2427400e-01 -1.9368800e-02
2.8324222e+00 1.0400556e-01 -2.3690000e-03
2.7922289e+00 8.7146056e-02 1.7013600e-02
2.7498000e+00 7.3695500e-02 3.8779000e-02
2.7498000e+00 7.3695500e-02 3.8779000e-02
2.7008422e+00 5.9166188e-02 5.8709278e-02
2.6512889e+00 4.6081021e-02 7.6023578e-02
2.6011400e+00 3.4440000e-02 9.0721900e-02
2.5503956e+00 2.4243124e-02 1.0280424e-01
2.4990556e+00 1.5490394e-02 1.1227061e-01
2.4471200e+00 8.1818100e-03 1.1912100e-01
2.4471200e+00 8.1818100e-03 1.1912100e-01
2.3876233e+00 1.9253000e-03 1.2108009e-01
2.3281933e+00 -3.3360667e-03 1.2022209e-01
2.2688300e+00 -7.6022900e-03 1.1654700e-01
2.2095333e+00 -1.0873370e-02 1.1005482e-01
2.1503033e+00 -1.3149307e-02 1.0074556e-01
2.0911400e+00 -1.4430100e-02 8.8619200e-02
2.0911400e+00 -1.4430100e-02 8.8619200e-02
2.0399222e+00 -1.2202239e-02 7.9265200e-02
1.9901189e+00 -8.9215356e-03 6.9612867e-02
1.9417300e+00 -4.5879900e-03 5.9662200e-02
1.8947556e+00 7.9839778e-04 4.9413200e-02
1.8491956e+00 7.2376278e-03 3.8865867e-02
1.8050500e+00 1.4729700e-02 2.8020200e-02
1.8050500e+00 1.4729700e-02 2.8020200e-02
1.7605744e+00 2.0673544e-02 1.5384633e-02
1.7158744e+00 2.7199678e-02 2.6868667e-03
1.6709500e+00 3.4308100e-02 -1.0073100e-02
1.6258011e+00 4.1998811e-02 -2.2895267e-02
1.5804278e+00 5.0271811e-02 -3.5779633e-02
1.5348300e+00 5.9127100e-02 -4.8726200e-02
1.5348300e+00 5.9127100e-02 -4.8726200e-02
1.4918200e+00 6.6420333e-02 -6.0684333e-02
1.4464567e+00 7.5127467e-02 -7.1407667e-02
1.3987400e+00 8.5248500e-02 -8.0896200e-02
1.3486700e+00 9.6783433e-02 -8.9149933e-02
1.2962467e+00 1.0973227e-01 -9.6168867e-02
1.2414700e+00 1.2409500e-01 -1.0195300e-01
1.2414700e+00 1.2409500e-01 -1.0195300e-01
1.1807454e+00 1.4196722e-01 -1.0615744e-01
1.1197721e+00 1.5688089e-01 -1.0914978e-01
1.0585500e+00 1.6883600e-01 -1.1093000e-01
9.9707911e-01 1.7783256e-01 -1.1149811e-01
9.3535944e-01 1.8387056e-01 -1.1085411e-01
8.7339100e-01 1.8695000e-01 -1.0899800e-01
8.7339100e-01 1.8695000e-01 -1.0899800e-01
8.0584800e-01 1.8700444e-01 -1.0627430e-01
7.4095033e-01 1.8485011e-01 -1.0105397e-01
6.7869800e-01 1.8048700e-01 -9.3337000e-02
6.1909100e-01 1.7391511e-01 -8.3123400e-02
5.6212933e-01 1.6513444e-01 -7.0413167e-02
5.0781300e-01 1.5414500e-01 -5.5206300e-02
5.0781300e-01 1.5414500e-01 -5.5206300e-02
4.4857578e-01 1.4527918e-01 -2.7996700e-02
3.9188944e-01 1.3479851e-01 -2.7857667e-03
3.3775400e-01 1.2270300e-01 2.0426500e-02
2.8616944e-01 1.0899264e-01 4.1640100e-02
2.3713578e-01 9.3667444e-02 6.0855033e-02
1.9065300e-01 7.6727400e-02 7.8071300e-02
1.9065300e-01 7.6727400e-02 7.8071300e-02
1.6689653e-01 6.4932322e-02 6.6830870e-02
1.4141053e-01 5.1182789e-02 5.4791970e-02
1.1419500e-01 3.5478800e-02 4.1954600e-02
8.5249933e-02 1.7820356e-02 2.8318760e-02
5.4575333e-02 -1.7925444e-03 1.3884450e-02
2.2171200e-02 -2.3359900e-02 -1.3483300e-03
9.8876900e+00 6.1034000e-01 1.4295300e-01
9.8643067e+00 5.5647311e-01 1.5844400e-01
9.8397700e+00 5.0485011e-01 1.7353600e-01
9.8140800e+00 4.5547100e-01 1.8822900e-01
9.7872367e+00 4.0833578e-01 2.0252300e-01
9.7592400e+00 3.6344444e-01 2.1641800e-01
9.7300900e+00 3.2079700e-01 2.2991400e-01
9.7300900e+00 3.2079700e-01 2.2991400e-01
9.7032989e+00 2.9001278e-01 2.4084389e-01
9.6751156e+00 2.6713011e-01 2.5056522e-01
9.6455400e+00 2.5214900e-01 2.5907800e-01
9.6145722e+00 2.4506944e-01 2.6638222e-01
9.5822122e+00 2.4589144e-01 2.7247789e-01
9.5484600e+00 2.5461500e-01 2.7736500e-01
9.5484600e+00 2.5461500e-01 2.7736500e-01
9.5169056e+00 2.6143467e-01 2.7969611e-01
9.4832522e+00 2.6953200e-01 2.8207044e-01
9.4475000e+00 2.7890700e-01 2.8448800e-01
9.4096489e+00 2.8955967e-01 2.8694878e-01
9.3696989e+00 3.0149000e-01 2.8945278e-01
9.3276500e+00 3.1469800e-01 2.9200000e-01
9.3276500e+00 3.1469800e-01 2.9200000e-01
9.2709667e+00 3.3261178e-01 2.9910967e-01
9.2164100e+00 3.4175378e-01 3.0596600e-01
9.1639800e+00 3.4212400e-01 3.1256900e-01
9.1136767e+00 3.3372244e-01 3.1891867e-01
9.0655000e+00 3.1654911e-01 3.2501500e-01
9.0194500e+00 2.9060400e-01 3.3085800e-01
9.0194500e+00 2.9060400e-01 3.3085800e-01
8.9819956e+00 2.5960057e-01 3.2782311e-01
8.9464722e+00 2.2816957e-01 3.2179978e-01
8.9128800e+00 1.9631100e-01 3.1278800e-01
8.8812189e+00 1.6402487e-01 3.0078778e-01
8.8514889e+00 1.3131117e-01 2.8579911e-01
8.8236900e+00 9.8169900e-02 2.6782200e-01
8.8236900e+00 9.8169900e-02 2.6782200e-01
8.7899811e+00 1.3332561e-01 2.7131822e-01
8.7526878e+00 1.6664964e-01 2.7327656e-01
8.7118100e+00 1.9814200e-01 2.7369700e-01
8.6673478e+00 2.2780268e-01 2.7257956e-01
8.6193011e+00 2.5563168e-01 2.6992422e-01
8.5676700e+00 2.8162900e-01 2.6573100e-01
8.5676700e+00 2.8162900e-01 2.6573100e-01
8.5158411e+00 3.0021811e-01 2.5300978e-01
8.4660844e+00 3.1170111e-01 2.3767178e-01
8.4184000e+00 3.1607800e-01 2.1971700e-01
8.3727878e+00 3.1334878e-01 1.9914544e-01
8.3292478e+00 3.0351344e-01 1.7595711e-01
8.2877800e+00 2.8657200e-01 1.5015200e-01
8.2877800e+00 2.8657200e-01 1.5015200e-01
8.2486278e+00 2.6021756e-01 1.3147399e-01
8.2067878e+00 2.3365322e-01 1.1190079e-01
8.1622600e+00 2.0687900e-01 9.1432400e-02
8.1150444e+00 1.7989489e-01 7.0068822e-02
8.0651411e+00 1.5270089e-01 4.7810056e-02
8.0125500e+00 1.2529700e-01 2.4656100e-02
8.0125500e+00 1.2529700e-01 2.4656100e-02
7.9504878e+00 1.0215083e-01 -2.7594333e-03
7.8856544e+00 8.6886000e-02 -2.7016000e-02
7.8180500e+00 7.9502500e-02 -4.8113600e-02
7.7476744e+00 8.0000333e-02 -6.6052233e-02
7.6745278e+00 8.8379500e-02 -8.0831900e-02
7.5986100e+00 1.0464000e-01 -9.2452600e-02
7.5986100e+00 1.0464000e-01 -9.2452600e-02
7.5271322e+00 1.3313544e-01 -9.5019622e-02
7.4618489e+00 1.6108411e-01 -9.6883756e-02
7.4027600e+00 1.8848600e-01 -9.8045000e-02
7.3498656e+00 2.1534111e-01 -9.8503356e-02
7.3031656e+00 2.4164944e-01 -9.8258822e-02
7.2626600e+00 2.6741100e-01 -9.7311400e-02
7.4166200e+00 3.3393800e-01 -1.4533200e-01
7.3996322e+00 3.1648378e-01 -1.3988818e-01
7.3791756e+00 3.0157611e-01 -1.3342051e-01
7.3552500e+00 2.8921500e-01 -1.2592900e-01
7.3278556e+00 2.7940044e-01 -1.1741364e-01
7.2969922e+00 2.7213244e-01 -1.0787444e-01
7.2626600e+00 2.6741100e-01 -9.7311400e-02
9.4174400e+00 6.5914000e-01 1.6815500e-01
9.3860044e+00 6.3859278e-01 1.4900786e-01
9.3535844e+00 6.1732644e-01 1.2822819e-01
9.3201800e+00 5.9534100e-01 1.0581600e-01
9.2857911e+00 5.7263644e-01 8.1771289e-02
9.2504178e+00 5.4921278e-01 5.6094056e-02
9.2140600e+00 5.2507000e-01 2.8784300e-02
9.2140600e+00 5.2507000e-01 2.8784300e-02
9.1766789e+00 4.9295567e-01 -6.8511111e-05
9.1402489e+00 4.6237133e-01 -2.1507044e-02
9.1047700e+00 4.3331700e-01 -3.5531300e-02
9.0702422e+00 4.0579267e-01 -4.2141278e-02
9.0366656e+00 3.7979833e-01 -4.1336978e-02
9.0040400e+00 3.5533400e-01 -3.3118400e-02
9.0040400e+00 3.5533400e-01 -3.3118400e-02
8.9589378e+00 3.5088811e-01 1.1661111e-04
8.9114511e+00 3.4921311e-01 3.2690244e-02
8.8615800e+00 3.5030900e-01 6.4602500e-02
8.8093244e+00 3.5417578e-01 9.5853378e-02
8.7546844e+00 3.6081344e-01 1.2644288e-01
8.6976600e+00 3.7022200e-01 1.5637100e-01
8.6976600e+00 3.7022200e-01 1.5637100e-01
8.6423389e+00 3.7859911e-01 1.8449567e-01
8.5841189e+00 3.8385344e-01 2.1103900e-01
8.5230000e+00 3.8598500e-01 2.3600100e-01
8.4589822e+00 3.8499378e-01 2.5938167e-01
8.3920656e+00 3.8087978e-01 2.8118100e-01
8.3222500e+00 3.7364300e-01 3.0139900e-01
8.3222500e+00 3.7364300e-01 3.0139900e-01
8.2436644e+00 3.4616278e-01 2.8154230e-01
8.1616378e+00 3.2638111e-01 2.5155730e-01
8.0761700e+00 3.1429800e-01 2.1144400e-01
7.9872611e+00 3.0991344e-01 1.6120240e-01
7.8949111e+00 3.1322744e-01 1.0083250e-01
7.7991200e+00 3.2424000e-01 3.0334300e-02
7.7991200e+00 3.2424000e-01 3.0334300e-02
7.7153200e+00 3.3514467e-01 -2.0948444e-02
7.6395400e+00 3.4233400e-01 -6.3429178e-02
7.5717800e+00 3.4580800e-01 -9.7107900e-02
7.5120400e+00 3.4556667e-01 -1.2198461e-01
7.4603200e+00 3.4161000e-01 -1.3805931e-01
7.4166200e+00 3.3393800e-01 -1.4533200e-01
5.5086300e+00 6.4805700e-01 -1.3300200e-01
5.5544278e+00 6.0708322e-01 -1.2140211e-01
5.6084244e+00 5.6686689e-01 -1.1332244e-01
5.6706200e+00 5.2740800e-01 -1.0876300e-01
5.7410144e+00 4.8870656e-01 -1.0772378e-01
5.8196078e+00 4.5076256e-01 -1.1020478e-01
5.9064000e+00 4.1357600e-01 -1.1620600e-01
5.9064000e+00 4.1357600e-01 -1.1620600e-01
6.0036789e+00 4.0065778e-01 -1.1596799e-01
6.1029856e+00 3.9668344e-01 -1.1380232e-01
6.2043200e+00 4.0165300e-01 -1.0970900e-01
6.3076822e+00 4.1556644e-01 -1.0368802e-01
6.4130722e+00 4.3842378e-01 -9.5739389e-02
6.5204900e+00 4.7022500e-01 -8.5863100e-02
6.5204900e+00 4.7022500e-01 -8.5863100e-02
6.6188567e+00 5.0444311e-01 -8.3136378e-02
6.7152500e+00 5.3014778e-01 -8.2118111e-02
6.8096700e+00 5.4733900e-01 -8.2808300e-02
6.9021167e+00 5.5601678e-01 -8.5206944e-02
6.9925900e+00 5.5618111e-01 -8.9314044e-02
7.0810900e+00 5.4783200e-01 -9.5129600e-02
7.0810900e+00 5.4783200e-01 -9.5129600e-02
7.1565422e+00 5.1576467e-01 -1.0441344e-01
7.2241822e+00 4.8226467e-01 -1.1333058e-01
7.2840100e+00 4.4733200e-01 -1.2188100e-01
7.3360256e+00 4.1096667e-01 -1.3006471e-01
7.3802289e+00 3.7316867e-01 -1.3788171e-01
7.4166200e+00 3.3393800e-01 -1.4533200e-01