# vtk DataFile Version 2.0
test
ASCII
DATASET POLYDATA
POINTS 4361 float
3.4307802e+00 6.5056369e+00 1.1865745e+01
3.5282095e+00 6.5762034e+00 1.1732854e+01
3.6282191e+00 6.6469858e+00 1.1602215e+01
3.7308090e+00 6.7179841e+00 1.1473828e+01
3.8359793e+00 6.7891981e+00 1.1347694e+01
3.9437299e+00 6.8606280e+00 1.1223812e+01
4.0540608e+00 6.9322738e+00 1.1102183e+01
4.0540608e+00 6.9322738e+00 1.1102183e+01
4.1703208e+00 7.0054113e+00 1.0984746e+01
4.2936860e+00 7.0779583e+00 1.0877294e+01
4.4241565e+00 7.1499148e+00 1.0779829e+01
4.5617322e+00 7.2212809e+00 1.0692348e+01
4.7064133e+00 7.2920566e+00 1.0614853e+01
4.8581996e+00 7.3622417e+00 1.0547344e+01
4.8581996e+00 7.3622417e+00 1.0547344e+01
5.0186108e+00 7.4295350e+00 1.0498585e+01
5.1816809e+00 7.4930906e+00 1.0462658e+01
5.3474100e+00 7.5529084e+00 1.0439565e+01
5.5157981e+00 7.6089885e+00 1.0429305e+01
5.6868451e+00 7.6613309e+00 1.0431877e+01
5.8605511e+00 7.7099356e+00 1.0447283e+01
5.8605511e+00 7.7099356e+00 1.0447283e+01
6.0328124e+00 7.7539687e+00 1.0470579e+01
6.2050848e+00 7.7947156e+00 1.0497579e+01
6.3773682e+00 7.8321761e+00 1.0528285e+01
6.5496626e+00 7.8663503e+00 1.0562695e+01
6.7219681e+00 7.8972382e+00 1.0600810e+01
6.8942846e+00 7.9248398e+00 1.0642630e+01
6.8942846e+00 7.9248398e+00 1.0642630e+01
7.0670025e+00 7.9498694e+00 1.0684380e+01
7.2407054e+00 7.9722021e+00 1.0722115e+01
7.4153932e+00 7.9918378e+00 1.0755835e+01
7.5910660e+00 8.0087765e+00 1.0785540e+01
7.7677237e+00 8.0230183e+00 1.0811230e+01
7.9453663e+00 8.0345631e+00 1.0832905e+01
7.9453663e+00 8.0345631e+00 1.0832905e+01
8.1257310e+00 8.0432368e+00 1.0845828e+01
8.3045216e+00 8.0489740e+00 1.0845480e+01
8.4817384e+00 8.0517745e+00 1.0831861e+01
8.6573811e+00 8.0516385e+00 1.0804972e+01
8.8314500e+00 8.0485660e+00 1.0764812e+01
9.0039448e+00 8.0425568e+00 1.0711381e+01
9.0039448e+00 8.0425568e+00 1.0711381e+01
9.1689875e+00 8.0335127e+00 1.0639127e+01
9.3270455e+00 8.0229178e+00 1.0556450e+01
9.4781190e+00 8.0107722e+00 1.0463350e+01
9.6222079e+00 7.9970758e+00 1.0359828e+01
9.7593122e+00 7.9818287e+00 1.0245882e+01
9.8894319e+00 7.9650308e+00 1.0121513e+01
9.8894319e+00 7.9650308e+00 1.0121513e+01
1.0012642e+01 7.9487953e+00 9.9924080e+00
1.0133280e+01 7.9321390e+00 9.8611035e+00
1.0251346e+01 7.9150620e+00 9.7275997e+00
1.0366839e+01 7.8975643e+00 9.5918966e+00
1.0479759e+01 7.8796459e+00 9.4539942e+00
1.0590107e+01 7.8613069e+00 9.3138926e+00
1.0590107e+01 7.8613069e+00 9.3138926e+00
1.0494400e+01 7.7971785e+00 9.1704761e+00
1.0399926e+01 7.7323668e+00 9.0265805e+00
1.0306685e+01 7.6668717e+00 8.8822059e+00
1.0214677e+01 7.6006933e+00 8.7373522e+00
1.0123902e+01 7.5338316e+00 8.5920193e+00
1.0034360e+01 7.4662865e+00 8.4462074e+00
1.0034360e+01 7.4662865e+00 8.4462074e+00
9.9472543e+00 7.3986877e+00 8.2986221e+00
9.8648512e+00 7.3295995e+00 8.1494224e+00
9.7871505e+00 7.2590219e+00 7.9986084e+00
9.7141523e+00 7.1869549e+00 7.8461800e+00
9.6458565e+00 7.1133985e+00 7.6921373e+00
9.5822632e+00 7.0383526e+00 7.5364802e+00
9.5822632e+00 7.0383526e+00 7.5364802e+00
9.5257590e+00 6.9611105e+00 7.3784021e+00
9.4784467e+00 6.8818133e+00 7.2194886e+00
9.4403265e+00 6.8004611e+00 7.0597397e+00
9.4113983e+00 6.7170538e+00 6.8991554e+00
9.3916622e+00 6.6315916e+00 6.7377356e+00
9.3811181e+00 6.5440743e+00 6.5754805e+00
9.3811181e+00 6.5440743e+00 6.5754805e+00
9.3828386e+00 6.4546189e+00 6.4138108e+00
9.3945715e+00 6.3641305e+00 6.2544424e+00
9.4163168e+00 6.2726090e+00 6.0973751e+00
9.4480744e+00 6.1800545e+00 5.9426089e+00
9.4898445e+00 6.0864668e+00 5.7901439e+00
9.5416269e+00 5.9918461e+00 5.6399801e+00
9.5416269e+00 5.9918461e+00 5.6399801e+00
9.6015596e+00 5.8970584e+00 5.4938714e+00
9.6669128e+00 5.8018285e+00 5.3509338e+00
9.7376865e+00 5.7061564e+00 5.2111673e+00
9.8138806e+00 5.6100421e+00 5.0745720e+00
9.8954952e+00 5.5134856e+00 4.9411477e+00
9.9825302e+00 5.4164868e+00 4.8108945e+00
9.9825302e+00 5.4164868e+00 4.8108945e+00
1.0072458e+01 5.3191240e+00 4.6833960e+00
1.0163912e+01 5.2207511e+00 4.5578819e+00
1.0256893e+01 5.1213683e+00 4.4343522e+00
1.0351399e+01 5.0209754e+00 4.3128068e+00
1.0447432e+01 4.9195726e+00 4.1932458e+00
1.0544991e+01 4.8171598e+00 4.0756691e+00
1.0544991e+01 4.8171598e+00 4.0756691e+00
1.0642483e+01 4.7131877e+00 3.9594295e+00
1.0738382e+01 4.6070852e+00 3.8439120e+00
1.0832690e+01 4.4988524e+00 3.7291165e+00
1.0925405e+01 4.3884892e+00 3.6150431e+00
1.1016529e+01 4.2759957e+00 3.5016917e+00
1.1106060e+01 4.1613718e+00 3.3890624e+00
1.1106060e+01 4.1613718e+00 3.3890624e+00
1.1192554e+01 4.0439191e+00 3.2764158e+00
1.1273495e+01 3.9232854e+00 3.1637568e+00
1.1348882e+01 3.7994708e+00 3.0510852e+00
1.1418715e+01 3.6724753e+00 2.9384010e+00
1.1482995e+01 3.5422988e+00 2.8257043e+00
1.1541721e+01 3.4089413e+00 2.7129950e+00
1.1541721e+01 3.4089413e+00 2.7129950e+00
1.1592292e+01 3.2715419e+00 2.6000799e+00
1.1632894e+01 3.1318097e+00 2.4878871e+00
1.1663527e+01 2.9897446e+00 2.3764167e+00
1.1684193e+01 2.8453468e+00 2.2656688e+00
1.1694889e+01 2.6986161e+00 2.1556433e+00
1.1695617e+01 2.5495526e+00 2.0463402e+00
1.1695617e+01 2.5495526e+00 2.0463402e+00
1.1683921e+01 2.3999419e+00 1.9386692e+00
1.1663077e+01 2.2509467e+00 1.8331454e+00
1.1633086e+01 2.1025668e+00 1.7297687e+00
1.1593947e+01 1.9548024e+00 1.6285392e+00
1.1545660e+01 1.8076534e+00 1.5294568e+00
1.1488225e+01 1.6611198e+00 1.4325216e+00
1.1488225e+01 1.6611198e+00 1.4325216e+00
1.1423731e+01 1.5166427e+00 1.3381674e+00
1.1354620e+01 1.3735039e+00 1.2455908e+00
1.1280890e+01 1.2317034e+00 1.1547917e+00
1.1202543e+01 1.0912412e+00 1.0657703e+00
1.1119578e+01 9.5211730e-01 9.7852648e-01
1.1031995e+01 8.1433167e-01 8.9306024e-01
1.1031995e+01 8.1433167e-01 8.9306024e-01
1.0942150e+01 6.7749302e-01 8.0892260e-01
1.0851048e+01 5.4115336e-01 7.2536826e-01
1.0758691e+01 4.0531271e-01 6.4239723e-01
1.0665077e+01 2.6997105e-01 5.6000949e-01
1.0570207e+01 1.3512840e-01 4.7820507e-01
1.0474081e+01 7.8473900e-04 3.9698394e-01
1.3345100e+00 5.2712195e+00 1.1653912e+01
1.3107634e+00 5.2344433e+00 1.1466712e+01
1.2891654e+00 5.1968355e+00 1.1279482e+01
1.2697158e+00 5.1583962e+00 1.1092221e+01
1.2524148e+00 5.1191254e+00 1.0904930e+01
1.2372622e+00 5.0790231e+00 1.0717609e+01
1.2242582e+00 5.0380893e+00 1.0530257e+01
1.2242582e+00 5.0380893e+00 1.0530257e+01
1.2160418e+00 4.9968633e+00 1.0342067e+01
1.2156912e+00 4.9537407e+00 1.0154872e+01
1.2232066e+00 4.9087217e+00 9.9686736e+00
1.2385878e+00 4.8618061e+00 9.7834704e+00
1.2618350e+00 4.8129940e+00 9.5992627e+00
1.2929481e+00 4.7622855e+00 9.4160507e+00
1.2929481e+00 4.7622855e+00 9.4160507e+00
1.3369732e+00 4.7085257e+00 9.2352819e+00
1.3925173e+00 4.6524654e+00 9.0604216e+00
1.4595805e+00 4.5941047e+00 8.8914698e+00
1.5381626e+00 4.5334434e+00 8.7284264e+00
1.6282637e+00 4.4704816e+00 8.5712915e+00
1.7298838e+00 4.4052193e+00 8.4200651e+00
1.7298838e+00 4.4052193e+00 8.4200651e+00
1.8426371e+00 4.3382238e+00 8.2787431e+00
1.9617674e+00 4.2699304e+00 8.1447689e+00
2.0872746e+00 4.2003392e+00 8.0181424e+00
2.2191587e+00 4.1294501e+00 7.8988637e+00
2.3574198e+00 4.0572631e+00 7.7869327e+00
2.5020578e+00 3.9837782e+00 7.6823496e+00
2.5020578e+00 3.9837782e+00 7.6823496e+00
2.6487785e+00 3.9094489e+00 7.5829800e+00
2.7965735e+00 3.8335287e+00 7.4867099e+00
2.9454430e+00 3.7560175e+00 7.3935395e+00
3.0953869e+00 3.6769153e+00 7.3034686e+00
3.2464052e+00 3.5962223e+00 7.2164972e+00
3.3984979e+00 3.5139383e+00 7.1326255e+00
3.3984979e+00 3.5139383e+00 7.1326255e+00
3.5502673e+00 3.4296389e+00 7.0501206e+00
3.6997689e+00 3.3424979e+00 6.9667916e+00
3.8470026e+00 3.2525154e+00 6.8826385e+00
3.9919686e+00 3.1596913e+00 6.7976614e+00
4.1346668e+00 3.0640256e+00 6.7118601e+00
4.2750972e+00 2.9655184e+00 6.6252348e+00
4.2750972e+00 2.9655184e+00 6.6252348e+00
4.4118765e+00 2.8631487e+00 6.5355538e+00
4.5410626e+00 2.7568065e+00 6.4414738e+00
4.6626556e+00 2.6464916e+00 6.3429949e+00
4.7766553e+00 2.5322041e+00 6.2401170e+00
4.8830620e+00 2.4139441e+00 6.1328402e+00
4.9818754e+00 2.2917115e+00 6.0211644e+00
4.9818754e+00 2.2917115e+00 6.0211644e+00
5.0677422e+00 2.1648739e+00 5.9027040e+00
5.1409447e+00 2.0366747e+00 5.7802578e+00
5.2014827e+00 1.9071140e+00 5.6538258e+00
5.2493564e+00 1.7761917e+00 5.5234078e+00
5.2845656e+00 1.6439079e+00 5.3890041e+00
5.3071105e+00 1.5102626e+00 5.2506145e+00
5.3071105e+00 1.5102626e+00 5.2506145e+00
5.3167336e+00 1.3783822e+00 5.1104956e+00
5.3183732e+00 1.2477575e+00 4.9697642e+00
5.3120293e+00 1.1183885e+00 4.8284201e+00
5.2977020e+00 9.9027519e-01 4.6864635e+00
5.2753913e+00 8.6341762e-01 4.5438943e+00
5.2450971e+00 7.3781576e-01 4.4007126e+00
5.2450971e+00 7.3781576e-01 4.4007126e+00
5.2107011e+00 6.1344035e-01 4.2582402e+00
5.1741394e+00 4.8964065e-01 4.1158473e+00
5.1354120e+00 3.6641668e-01 3.9735337e+00
5.0945188e+00 2.4376843e-01 3.8312996e+00
5.0514600e+00 1.2169591e-01 3.6891448e+00
5.0062355e+00 1.9910900e-04 3.5470693e+00
1.1647500e-01 5.0363420e+00 1.3918482e+01
1.6884945e-01 5.1396969e+00 1.3759854e+01
2.3451414e-01 5.2442530e+00 1.3611333e+01
3.1346907e-01 5.3500103e+00 1.3472917e+01
4.0571423e-01 5.4569688e+00 1.3344607e+01
5.1124962e-01 5.5651284e+00 1.3226404e+01
6.3007524e-01 5.6744892e+00 1.3118306e+01
6.3007524e-01 5.6744892e+00 1.3118306e+01
7.8303823e-01 5.7773702e+00 1.3054570e+01
9.4300614e-01 5.8713151e+00 1.3006706e+01
1.1099790e+00 5.9563239e+00 1.2974716e+01
1.2839567e+00 6.0323966e+00 1.2958597e+01
1.4649394e+00 6.0995331e+00 1.2958352e+01
1.6529270e+00 6.1577336e+00 1.2973979e+01
1.6529270e+00 6.1577336e+00 1.2973979e+01
1.8424251e+00 6.2110292e+00 1.2988732e+01
2.0291420e+00 6.2597405e+00 1.2984677e+01
2.2130778e+00 6.3038675e+00 1.2961814e+01
2.3942325e+00 6.3434103e+00 1.2920143e+01
2.5726060e+00 6.3783688e+00 1.2859664e+01
2.7481985e+00 6.4087431e+00 1.2780377e+01
2.7481985e+00 6.4087431e+00 1.2780377e+01
2.8938501e+00 6.4320249e+00 1.2653833e+01
3.0267465e+00 6.4524535e+00 1.2516931e+01
3.1468877e+00 6.4700290e+00 1.2369671e+01
3.2542737e+00 6.4847514e+00 1.2212053e+01
[...]
POINT_DATA 4361
VECTORS U float
1.3387800e-01 4.2788400e-02 -1.5121200e-03
1.3547167e-01 4.1858844e-02 -7.0941111e-04
1.3701033e-01 4.0822378e-02 2.6325556e-05
1.3849400e-01 3.9679000e-02 6.9509000e-04
1.3992267e-01 3.8428711e-02 1.2968822e-03
1.4129633e-01 3.7071511e-02 1.8317022e-03
1.4261500e-01 3.5607400e-02 2.2995500e-03
1.4261500e-01 3.5607400e-02 2.2995500e-03
1.4368511e-01 3.4437100e-02 2.7379833e-03
1.4467011e-01 3.3144067e-02 3.0364400e-03
1.4557000e-01 3.1728300e-02 3.1949200e-03
1.4638478e-01 3.0189800e-02 3.2134233e-03
1.4711444e-01 2.8528567e-02 3.0919500e-03
1.4775900e-01 2.6744600e-02 2.8305000e-03
1.4775900e-01 2.6744600e-02 2.8305000e-03
1.4852944e-01 2.4769311e-02 2.7731378e-03
1.4921244e-01 2.2919244e-02 2.7758578e-03
1.4980800e-01 2.1194400e-02 2.8386600e-03
1.5031611e-01 1.9594778e-02 2.9615444e-03
1.5073678e-01 1.8120378e-02 3.1445111e-03
1.5107000e-01 1.6771200e-02 3.3875600e-03
1.5107000e-01 1.6771200e-02 3.3875600e-03
1.5138233e-01 1.5457089e-02 3.2552811e-03
1.5165033e-01 1.4248656e-02 3.1522078e-03
1.5187400e-01 1.3145900e-02 3.0783400e-03
1.5205333e-01 1.2148822e-02 3.0336778e-03
1.5218833e-01 1.1257422e-02 3.0182211e-03
1.5227900e-01 1.0471700e-02 3.0319700e-03
1.5227900e-01 1.0471700e-02 3.0319700e-03
1.5232044e-01 9.7369911e-03 3.1361878e-03
1.5234578e-01 9.0616678e-03 3.2775111e-03
1.5235500e-01 8.4457300e-03 3.4559400e-03
1.5234811e-01 7.8891778e-03 3.6714744e-03
1.5232511e-01 7.3920111e-03 3.9241144e-03
1.5228600e-01 6.9542300e-03 4.2138600e-03
1.5228600e-01 6.9542300e-03 4.2138600e-03
1.5226278e-01 6.5021767e-03 4.4738789e-03
1.5223044e-01 6.1273700e-03 4.6571489e-03
1.5218900e-01 5.8298100e-03 4.7636700e-03
1.5213844e-01 5.6094967e-03 4.7934422e-03
1.5207878e-01 5.4664300e-03 4.7464656e-03
1.5201000e-01 5.4006100e-03 4.6227400e-03
1.5201000e-01 5.4006100e-03 4.6227400e-03
1.5198178e-01 5.4550033e-03 4.5804544e-03
1.5179911e-01 5.5876133e-03 4.3690344e-03
1.5146200e-01 5.7984400e-03 3.9884800e-03
1.5097044e-01 6.0874833e-03 3.4387911e-03
1.5032444e-01 6.4547433e-03 2.7199678e-03
1.4952400e-01 6.9002200e-03 1.8320100e-03
1.4952400e-01 6.9002200e-03 1.8320100e-03
1.4812322e-01 8.3412889e-03 3.8291222e-04
1.4678922e-01 9.6612822e-03 -9.4758111e-04
1.4552200e-01 1.0860200e-02 -2.1594700e-03
1.4432156e-01 1.1938042e-02 -3.2527544e-03
1.4318789e-01 1.2894809e-02 -4.2274344e-03
1.4212100e-01 1.3730500e-02 -5.0835100e-03
1.4212100e-01 1.3730500e-02 -5.0835100e-03
1.4127589e-01 1.3250013e-02 -4.2601011e-03
1.4032122e-01 1.2600813e-02 -3.3066111e-03
1.3925700e-01 1.1782900e-02 -2.2230400e-03
1.3808322e-01 1.0796273e-02 -1.0093878e-03
1.3679989e-01 9.6409333e-03 3.3434556e-04
1.3540700e-01 8.3168800e-03 1.8081600e-03
1.3540700e-01 8.3168800e-03 1.8081600e-03
1.3393467e-01 7.9901133e-03 2.8448244e-03
1.3239633e-01 7.7325700e-03 3.8259744e-03
1.3079200e-01 7.5442500e-03 4.7516100e-03
1.2912167e-01 7.4251533e-03 5.6217311e-03
1.2738533e-01 7.3752800e-03 6.4363378e-03
1.2558300e-01 7.3946300e-03 7.1954300e-03
1.2558300e-01 7.3946300e-03 7.1954300e-03
1.2379600e-01 7.5032189e-03 7.8148333e-03
1.2190100e-01 7.5968756e-03 8.3475033e-03
1.1989800e-01 7.6756000e-03 8.7934400e-03
1.1778700e-01 7.7393922e-03 9.1526433e-03
1.1556800e-01 7.7882522e-03 9.4251133e-03
1.1324100e-01 7.8221800e-03 9.6108500e-03
1.1324100e-01 7.8221800e-03 9.6108500e-03
1.1080344e-01 7.8284856e-03 9.6426211e-03
1.0849911e-01 7.7792689e-03 9.5886511e-03
1.0632800e-01 7.6745300e-03 9.4489400e-03
1.0429011e-01 7.5142689e-03 9.2234878e-03
1.0238544e-01 7.2984856e-03 8.9122944e-03
1.0061400e-01 7.0271800e-03 8.5153600e-03
1.0061400e-01 7.0271800e-03 8.5153600e-03
9.8849067e-02 6.6914467e-03 8.0962733e-03
9.7132800e-02 6.3067033e-03 7.6708600e-03
9.5465200e-02 5.8729500e-03 7.2391200e-03
9.3846267e-02 5.3901867e-03 6.8010533e-03
9.2276000e-02 4.8584133e-03 6.3566600e-03
9.0754400e-02 4.2776300e-03 5.9059400e-03
9.0754400e-02 4.2776300e-03 5.9059400e-03
8.9259156e-02 3.7552333e-03 5.3996044e-03
8.7776289e-02 3.2311667e-03 4.8818111e-03
8.6305800e-02 2.7054300e-03 4.3525600e-03
8.4847689e-02 2.1780233e-03 3.8118511e-03
8.3401956e-02 1.6489467e-03 3.2596844e-03
8.1968600e-02 1.1182000e-03 2.6960600e-03
8.1968600e-02 1.1182000e-03 2.6960600e-03
8.0471156e-02 4.7473333e-04 2.1972826e-03
7.8903422e-02 -1.9519200e-04 1.6790959e-03
7.7265400e-02 -8.9157600e-04 1.1415000e-03
7.5557089e-02 -1.6144187e-03 5.8449489e-04
7.3778489e-02 -2.3637200e-03 8.0805556e-06
7.1929600e-02 -3.1394800e-03 -5.8774300e-04
7.1929600e-02 -3.1394800e-03 -5.8774300e-04
6.9918322e-02 -3.9109156e-03 -1.2538072e-03
6.7734222e-02 -4.6769589e-03 -1.9032596e-03
6.5377300e-02 -5.4376100e-03 -2.5361000e-03
6.2847556e-02 -6.1928689e-03 -3.1523286e-03
6.0144989e-02 -6.9427356e-03 -3.7519452e-03
5.7269600e-02 -7.6872100e-03 -4.3349500e-03
5.7269600e-02 -7.6872100e-03 -4.3349500e-03
5.4393089e-02 -8.4397889e-03 -4.6846667e-03
5.1435856e-02 -9.0611022e-03 -4.9520500e-03
4.8397900e-02 -9.5511500e-03 -5.1371000e-03
4.5279222e-02 -9.9099322e-03 -5.2398167e-03
4.2079822e-02 -1.0137449e-02 -5.2602000e-03
3.8799700e-02 -1.0233700e-02 -5.1982500e-03
3.8799700e-02 -1.0233700e-02 -5.1982500e-03
3.5478133e-02 -9.9349811e-03 -5.2735678e-03
3.2312700e-02 -9.5293644e-03 -5.2974678e-03
2.9303400e-02 -9.0168500e-03 -5.2699500e-03
2.6450233e-02 -8.3974378e-03 -5.1910144e-03
2.3753200e-02 -7.6711278e-03 -5.0606611e-03
2.1212300e-02 -6.8379200e-03 -4.8788900e-03
2.1212300e-02 -6.8379200e-03 -4.8788900e-03
1.8686739e-02 -5.9391278e-03 -4.6565022e-03
1.6312306e-02 -5.0626844e-03 -4.3895189e-03
1.4089000e-02 -4.2085900e-03 -4.0779400e-03
1.2016822e-02 -3.3768444e-03 -3.7217656e-03
1.0095772e-02 -2.5674478e-03 -3.3209956e-03
8.3258500e-03 -1.7804000e-03 -2.8756300e-03
8.3258500e-03 -1.7804000e-03 -2.8756300e-03
6.8091612e-03 -1.2446338e-03 -2.3083396e-03
5.3787379e-03 -7.5216478e-04 -1.7425829e-03
4.0345800e-03 -3.0299300e-04 -1.1783600e-03
2.7766876e-03 1.0288156e-04 -6.1567089e-04
1.6050606e-03 4.6545889e-04 -5.4515556e-05
5.1969900e-04 7.8473900e-04 5.0510600e-04
1.1639000e-01 5.9707400e-02 9.3570100e-03
1.1523033e-01 5.9162389e-02 9.6780722e-03
1.1391900e-01 5.8372156e-02 1.0049302e-02
1.1245600e-01 5.7336700e-02 1.0470700e-02
1.1084133e-01 5.6056022e-02 1.0942266e-02
1.0907500e-01 5.4530122e-02 1.1463999e-02
1.0715700e-01 5.2759000e-02 1.2035900e-02
1.0715700e-01 5.2759000e-02 1.2035900e-02
1.0553439e-01 5.1900156e-02 1.2373444e-02
1.0381606e-01 5.0993356e-02 1.2651478e-02
1.0200200e-01 5.0038600e-02 1.2870000e-02
1.0009222e-01 4.9035889e-02 1.3029011e-02
9.8086722e-02 4.7985222e-02 1.3128511e-02
9.5985500e-02 4.6886600e-02 1.3168500e-02
9.5985500e-02 4.6886600e-02 1.3168500e-02
9.4050933e-02 4.5536967e-02 1.3203878e-02
9.2000067e-02 4.4079667e-02 1.3100311e-02
8.9832900e-02 4.2514700e-02 1.2857800e-02
8.7549433e-02 4.0842067e-02 1.2476344e-02
8.5149667e-02 3.9061767e-02 1.1955944e-02
8.2633600e-02 3.7173800e-02 1.1296600e-02
8.2633600e-02 3.7173800e-02 1.1296600e-02
8.0357611e-02 3.5109889e-02 1.0564666e-02
7.8347411e-02 3.3046589e-02 1.0034876e-02
7.6603000e-02 3.0983900e-02 9.7072300e-03
7.5124378e-02 2.8921822e-02 9.5817289e-03
7.3911544e-02 2.6860356e-02 9.6583722e-03
7.2964500e-02 2.4799500e-02 9.9371600e-03
7.2964500e-02 2.4799500e-02 9.9371600e-03
7.1773011e-02 2.2885256e-02 9.9362678e-03
7.0565444e-02 2.1027789e-02 9.8822178e-03
6.9341800e-02 1.9227100e-02 9.7750100e-03
6.8102078e-02 1.7483189e-02 9.6146444e-03
6.6846278e-02 1.5796056e-02 9.4011211e-03
6.5574400e-02 1.4165700e-02 9.1344400e-03
6.5574400e-02 1.4165700e-02 9.1344400e-03
6.4484744e-02 1.2566766e-02 9.1538522e-03
6.3339744e-02 1.1021106e-02 9.1033489e-03
6.2139400e-02 9.5287200e-03 8.9829300e-03
6.0883711e-02 8.0896089e-03 8.7925956e-03
5.9572678e-02 6.7037722e-03 8.5323456e-03
5.8206300e-02 5.3712100e-03 8.2021800e-03
5.8206300e-02 5.3712100e-03 8.2021800e-03
5.6738811e-02 4.1363278e-03 7.6952078e-03
5.5102644e-02 2.9477278e-03 7.1272278e-03
5.3297800e-02 1.8054100e-03 6.4982400e-03
5.1324278e-02 7.0937444e-04 5.8082444e-03
4.9182078e-02 -3.4037889e-04 5.0572411e-03
4.6871200e-02 -1.3438500e-03 4.2452300e-03
4.6871200e-02 -1.3438500e-03 4.2452300e-03
4.4031289e-02 -2.3373044e-03 3.3665754e-03
4.1088522e-02 -3.1350744e-03 2.5693688e-03
3.8042900e-02 -3.7371600e-03 1.8536100e-03
3.4894422e-02 -4.1435611e-03 1.2192991e-03
3.1643089e-02 -4.3542778e-03 6.6643611e-04
2.8288900e-02 -4.3693100e-03 1.9502100e-04
2.8288900e-02 -4.3693100e-03 1.9502100e-04
2.5106589e-02 -4.0093389e-03 -3.0234944e-04
2.2064389e-02 -3.5865822e-03 -7.0341644e-04
1.9162300e-02 -3.1010400e-03 -1.0081800e-03
1.6400322e-02 -2.5527122e-03 -1.2166401e-03
1.3778456e-02 -1.9415989e-03 -1.3287968e-03
1.1296700e-02 -1.2677000e-03 -1.3446500e-03
1.1296700e-02 -1.2677000e-03 -1.3446500e-03
9.1228419e-03 -9.0575656e-04 -1.0781883e-03
7.0744652e-03 -5.9080322e-04 -7.9374333e-04
5.1515700e-03 -3.2284000e-04 -4.9131500e-04
3.3541562e-03 -1.0186689e-04 -1.7090333e-04
1.6822239e-03 7.2116111e-05 1.6749167e-04
1.3577300e-04 1.9910900e-04 5.2387000e-04
1.1647500e-01 6.6637600e-02 -1.3008400e-03
1.1815200e-01 6.6918356e-02 -5.4151111e-04
1.1975633e-01 6.6964856e-02 1.8052822e-04
1.2128800e-01 6.6777100e-02 8.6527800e-04
1.2274700e-01 6.6355089e-02 1.5127382e-03
1.2413333e-01 6.5698822e-02 2.1229089e-03
1.2544700e-01 6.4808300e-02 2.6957900e-03
1.2544700e-01 6.4808300e-02 2.6957900e-03
1.2661633e-01 6.3225311e-02 3.0206111e-03
1.2770367e-01 6.1494711e-02 3.1387544e-03
1.2870900e-01 5.9616500e-02 3.0502200e-03
1.2963233e-01 5.7590678e-02 2.7550078e-03
1.3047367e-01 5.5417244e-02 2.2531178e-03
1.3123300e-01 5.3096200e-02 1.5445500e-03
1.3123300e-01 5.3096200e-02 1.5445500e-03
1.3194933e-01 5.0629633e-02 9.2904778e-04
1.3251600e-01 4.8441100e-02 3.5868578e-04
1.3293300e-01 4.6530600e-02 -1.6653600e-04
1.3320033e-01 4.4898133e-02 -6.4661756e-04
1.3331800e-01 4.3543700e-02 -1.0815589e-03
1.3328600e-01 4.2467300e-02 -1.4713600e-03
1.3328600e-01 4.2467300e-02 -1.4713600e-03
1.3309522e-01 4.2297067e-02 -1.7077422e-03
1.3302022e-01 4.2216333e-02 -1.8522889e-03
1.3306100e-01 4.2225100e-02 -1.9050000e-03
1.3321756e-01 4.2323367e-02 -1.8658756e-03
1.3348989e-01 4.2511133e-02 -1.7349156e-03
1.3387800e-01 4.2788400e-02 -1.5121200e-03
1.1182500e-01 6.4461100e-02 3.7995400e-03
1.1295333e-01 6.4163622e-02 5.1591822e-03
1.1393467e-01 6.3668222e-02 6.3454656e-03
1.1476900e-01 6.2974900e-02 7.3583900e-03
1.1545633e-01 6.2083656e-02 8.1979556e-03
1.1599667e-01 6.0994489e-02 8.8641622e-03
1.1639000e-01 5.9707400e-02 9.3570100e-03
1.4212100e-01 1.3730500e-02 -5.0835100e-03
1.4117789e-01 1.2192344e-02 -4.8952378e-03
1.4021722e-01 1.0734708e-02 -4.6768144e-03
1.3923900e-01 9.3575900e-03 -4.4282400e-03
1.3824322e-01 8.0609911e-03 -4.1495144e-03
1.3722989e-01 6.8449111e-03 -3.8406378e-03
1.3619900e-01 5.7093500e-03 -3.5016100e-03
1.3619900e-01 5.7093500e-03 -3.5016100e-03
1.3563056e-01 4.9957867e-03 -3.4794222e-03
1.3489822e-01 4.3170033e-03 -3.3016556e-03
1.3400200e-01 3.6730000e-03 -2.9683100e-03
1.3294189e-01 3.0637767e-03 -2.4793856e-03
1.3171789e-01 2.4893333e-03 -1.8348822e-03
1.3033000e-01 1.9496700e-03 -1.0348000e-03
1.3033000e-01 1.9496700e-03 -1.0348000e-03
1.2882267e-01 1.3180689e-03 -3.6408056e-04
1.2725900e-01 7.7471122e-04 2.6738844e-04
1.2563900e-01 3.1959700e-04 8.5960700e-04
1.2396267e-01 -4.7273778e-05 1.4125751e-03
1.2223000e-01 -3.2590111e-04 1.9262928e-03
1.2044100e-01 -5.1628500e-04 2.4007600e-03
1.2044100e-01 -5.1628500e-04 2.4007600e-03
1.1778289e-01 -7.4244389e-04 2.9224678e-03
1.1503656e-01 -9.1705222e-04 3.3192578e-03
1.1220200e-01 -1.0401100e-03 3.5911300e-03
1.0927922e-01 -1.1116172e-03 3.7380844e-03
1.0626822e-01 -1.1315739e-03 3.7601211e-03
1.0316900e-01 -1.0999800e-03 3.6572400e-03
1.0316900e-01 -1.0999800e-03 3.6572400e-03
1.0054628e-01 -8.6465167e-04 3.5546867e-03
9.7930544e-02 -5.6942400e-04 3.4104700e-03
9.5321800e-02 -2.1429700e-04 3.2245900e-03
9.2720044e-02 2.0072933e-04 2.9970467e-03
9.0125278e-02 6.7565500e-04 2.7278400e-03
8.7537500e-02 1.2104800e-03 2.4169700e-03
8.7537500e-02 1.2104800e-03 2.4169700e-03
8.4920878e-02 1.6439822e-03 1.9966861e-03
8.2260844e-02 2.1228422e-03 1.5820261e-03
7.9557400e-02 2.6470600e-03 1.1729900e-03
7.6810544e-02 3.2166356e-03 7.6957787e-04
7.4020278e-02 3.8315689e-03 3.7178967e-04
7.1186600e-02 4.4918600e-03 -2.0374600e-05
7.1186600e-02 4.4918600e-03 -2.0374600e-05
6.8615611e-02 5.0455956e-03 -3.9978422e-04
6.5874411e-02 5.6288722e-03 -7.0594036e-04
6.2963000e-02 6.2416900e-03 -9.3884300e-04
5.9881378e-02 6.8840489e-03 -1.0984922e-03
5.6629544e-02 7.5559489e-03 -1.1848878e-03
5.3207500e-02 8.2573900e-03 -1.1980300e-03
5.3207500e-02 8.2573900e-03 -1.1980300e-03
4.9156778e-02 9.1713167e-03 -9.0815500e-04
4.5307378e-02 9.8740533e-03 -6.0526800e-04
4.1659300e-02 1.0365600e-02 -2.8936900e-04
3.8212544e-02 1.0645957e-02 3.9542000e-05
3.4967111e-02 1.0715123e-02 3.8146500e-04
3.1923000e-02 1.0573100e-02 7.3640000e-04
3.1923000e-02 1.0573100e-02 7.3640000e-04
2.8746578e-02 1.0143487e-02 1.0577356e-03
2.5798711e-02 9.6167800e-03 1.3118022e-03
2.3079400e-02 8.9929800e-03 1.4986000e-03
2.0588644e-02 8.2720867e-03 1.6181289e-03
1.8326444e-02 7.4541000e-03 1.6703889e-03
1.6292800e-02 6.5390200e-03 1.6553800e-03
1.6292800e-02 6.5390200e-03 1.6553800e-03
1.4442706e-02 5.7127878e-03 1.6938156e-03
1.2674539e-02 4.9122678e-03 1.7374256e-03
1.0988300e-02 4.1374600e-03 1.7862100e-03
9.3839889e-03 3.3883644e-03 1.8401689e-03
7.8616056e-03 2.6649811e-03 1.8993022e-03
6.4211500e-03 1.9673100e-03 1.9636100e-03
6.4211500e-03 1.9673100e-03 1.9636100e-03
5.5515756e-03 1.6618261e-03 1.5778944e-03
4.6781122e-03 1.2921284e-03 1.2210898e-03
3.8007600e-03 8.5821700e-04 8.9319600e-04
2.9195189e-03 3.6009178e-04 5.9421311e-04
2.0343889e-03 -2.0224722e-04 3.2414111e-04
1.1453700e-03 -8.2880000e-04 8.2980000e-05
4.5604400e-01 3.4489700e-02 1.2495400e-02
4.5543267e-01 3.2077078e-02 1.3310900e-02
4.5474933e-01 2.9716644e-02 1.4104900e-02
4.5399400e-01 2.7408400e-02 1.4877400e-02
4.5316667e-01 2.5152344e-02 1.5628400e-02
4.5226733e-01 2.2948478e-02 1.6357900e-02
4.5129600e-01 2.0796800e-02 1.7065900e-02
4.5129600e-01 2.0796800e-02 1.7065900e-02
4.5045044e-01 1.9379589e-02 1.7463778e-02
4.4960911e-01 1.8363489e-02 1.7841478e-02
4.4877200e-01 1.7748500e-02 1.8199000e-02
4.4793911e-01 1.7534622e-02 1.8536344e-02
4.4711044e-01 1.7721856e-02 1.8853511e-02
4.4628600e-01 1.8310200e-02 1.9150500e-02
4.4628600e-01 1.8310200e-02 1.9150500e-02
4.4537511e-01 1.8839467e-02 1.9439033e-02
4.4430844e-01 1.9413133e-02 1.9757833e-02
4.4308600e-01 2.0031200e-02 2.0106900e-02
4.4170778e-01 2.0693667e-02 2.0486233e-02
4.4017378e-01 2.1400533e-02 2.0895833e-02
4.3848400e-01 2.2151800e-02 2.1335700e-02
4.3848400e-01 2.2151800e-02 2.1335700e-02
4.3624533e-01 2.2935133e-02 2.2027578e-02
4.3412433e-01 2.3362600e-02 2.2694478e-02
4.3212100e-01 2.3434200e-02 2.3336400e-02
4.3023533e-01 2.3149933e-02 2.3953344e-02
4.2846733e-01 2.2509800e-02 2.4545311e-02
4.2681700e-01 2.1513800e-02 2.5112300e-02
4.2681700e-01 2.1513800e-02 2.5112300e-02
4.2554456e-01 2.0403989e-02 2.5408856e-02
4.2434089e-01 1.9229989e-02 2.5523222e-02
4.2320600e-01 1.7991800e-02 2.5455400e-02
4.2213989e-01 1.6689422e-02 2.5205389e-02
4.2114256e-01 1.5322856e-02 2.4773189e-02
4.2021400e-01 1.3892100e-02 2.4158800e-02
4.2021400e-01 1.3892100e-02 2.4158800e-02
4.1816267e-01 1.5069589e-02 2.4280189e-02
4.1595933e-01 1.6182556e-02 2.4279656e-02
4.1360400e-01 1.7231000e-02 2.4157200e-02
4.1109667e-01 1.8214922e-02 2.3912822e-02
4.0843733e-01 1.9134322e-02 2.3546522e-02
4.0562600e-01 1.9989200e-02 2.3058300e-02
4.0562600e-01 1.9989200e-02 2.3058300e-02
4.0301156e-01 2.0444800e-02 2.2161678e-02
4.0061789e-01 2.0619767e-02 2.1216144e-02
3.9844500e-01 2.0514100e-02 2.0221700e-02
3.9649289e-01 2.0127800e-02 1.9178344e-02
3.9476156e-01 1.9460867e-02 1.8086078e-02
3.9325100e-01 1.8513300e-02 1.6944900e-02
3.9325100e-01 1.8513300e-02 1.6944900e-02
3.9201522e-01 1.7352011e-02 1.6286867e-02
3.9066322e-01 1.6137478e-02 1.5569833e-02
3.8919500e-01 1.4869700e-02 1.4793800e-02
3.8761056e-01 1.3548678e-02 1.3958767e-02
3.8590989e-01 1.2174411e-02 1.3064733e-02
3.8409300e-01 1.0746900e-02 1.2111700e-02
3.8409300e-01 1.0746900e-02 1.2111700e-02
3.8181111e-01 9.2947811e-03 1.0818927e-02
3.7924978e-01 8.1419744e-03 9.6211300e-03
3.7640900e-01 7.2884800e-03 8.5183100e-03
3.7328878e-01 6.7342978e-03 7.5104667e-03
3.6988911e-01 6.4794278e-03 6.5976000e-03
3.6621000e-01 6.5238700e-03 5.7797100e-03
3.6621000e-01 6.5238700e-03 5.7797100e-03
3.6232467e-01 7.3088333e-03 5.3753911e-03
3.5880167e-01 8.1071000e-03 5.0727511e-03
3.5564100e-01 8.9186700e-03 4.8717900e-03
3.5284267e-01 9.7435433e-03 4.7725078e-03
3.5040667e-01 1.0581720e-02 4.7749044e-03
3.4833300e-01 1.1433200e-02 4.8789800e-03
3.5428500e-01 1.5347800e-02 2.6478300e-03
3.5389078e-01 1.4220144e-02 2.6377022e-03
3.5325744e-01 1.3282578e-02 2.7803689e-03
3.5238500e-01 1.2535100e-02 3.0758300e-03
3.5127344e-01 1.1977711e-02 3.5240856e-03
3.4992278e-01 1.1610411e-02 4.1251356e-03
3.4833300e-01 1.1433200e-02 4.8789800e-03
4.3378000e-01 3.8100700e-02 1.1586400e-02
4.3250211e-01 3.7073744e-02 1.0639948e-02
4.3124078e-01 3.6037344e-02 9.6574644e-03
4.2999600e-01 3.4991500e-02 8.6389500e-03
4.2876778e-01 3.3936211e-02 7.5844044e-03
4.2755611e-01 3.2871478e-02 6.4938278e-03
4.2636100e-01 3.1797300e-02 5.3672200e-03
4.2636100e-01 3.1797300e-02 5.3672200e-03
4.2525956e-01 3.0520011e-02 4.3094600e-03
4.2417456e-01 2.9337878e-02 3.5401767e-03
4.2310600e-01 2.8250900e-02 3.0593700e-03
4.2205389e-01 2.7259078e-02 2.8670400e-03
4.2101822e-01 2.6362411e-02 2.9631867e-03
4.1999900e-01 2.5560900e-02 3.3478100e-03
4.1999900e-01 2.5560900e-02 3.3478100e-03
4.1832956e-01 2.5087422e-02 4.7740111e-03
4.1651722e-01 2.4727256e-02 6.2339711e-03
4.1456200e-01 2.4480400e-02 7.7276900e-03
4.1246389e-01 2.4346856e-02 9.2551678e-03
4.1022289e-01 2.4326622e-02 1.0816404e-02
4.0783900e-01 2.4419700e-02 1.2411400e-02
4.0783900e-01 2.4419700e-02 1.2411400e-02
4.0549678e-01 2.4851400e-02 1.4252667e-02
4.0306478e-01 2.5164500e-02 1.6142500e-02
4.0054300e-01 2.5359000e-02 1.8080900e-02
3.9793144e-01 2.5434900e-02 2.0067867e-02
3.9523011e-01 2.5392200e-02 2.2103400e-02
3.9243900e-01 2.5230900e-02 2.4187500e-02
3.9243900e-01 2.5230900e-02 2.4187500e-02
3.8974067e-01 2.3796367e-02 2.4256133e-02
3.8684033e-01 2.2451333e-02 2.3614733e-02
3.8373800e-01 2.1195800e-02 2.2263300e-02
3.8043367e-01 2.0029767e-02 2.0201833e-02
3.7692733e-01 1.8953233e-02 1.7430333e-02
3.7321900e-01 1.7966200e-02 1.3948800e-02
3.7321900e-01 1.7966200e-02 1.3948800e-02
3.6967500e-01 1.7544911e-02 1.1158786e-02
3.6628633e-01 1.7117578e-02 8.7313789e-03
3.6305300e-01 1.6684200e-02 6.6665800e-03
3.5997500e-01 1.6244778e-02 4.9643889e-03
3.5705233e-01 1.5799311e-02 3.6248056e-03
3.5428500e-01 1.5347800e-02 2.6478300e-03
2.5698500e-01 2.3017500e-02 5.6345900e-05
2.6000656e-01 2.0884022e-02 3.8602828e-04
2.6354689e-01 1.8973922e-02 4.7319531e-04
2.6760600e-01 1.7287200e-02 3.1784700e-04
2.7218389e-01 1.5823856e-02 -8.0016656e-05
2.7728056e-01 1.4583889e-02 -7.2039566e-04
2.8289600e-01 1.3567300e-02 -1.6032900e-03
2.8289600e-01 1.3567300e-02 -1.6032900e-03
2.8778467e-01 1.4126867e-02 -1.7118440e-03
2.9236700e-01 1.4993433e-02 -1.6618873e-03
2.9664300e-01 1.6167000e-02 -1.4534200e-03
3.0061267e-01 1.7647567e-02 -1.0864420e-03
3.0427600e-01 1.9435133e-02 -5.6095333e-04
3.0763300e-01 2.1529700e-02 1.2304600e-04
3.0763300e-01 2.1529700e-02 1.2304600e-04
3.1085878e-01 2.3557067e-02 6.2142333e-04
3.1429378e-01 2.5195833e-02 1.1417580e-03
3.1793800e-01 2.6446000e-02 1.6840500e-03
3.2179144e-01 2.7307567e-02 2.2482993e-03
3.2585411e-01 2.7780533e-02 2.8345060e-03
3.3012600e-01 2.7864900e-02 3.4426700e-03
3.3012600e-01 2.7864900e-02 3.4426700e-03
3.3500944e-01 2.6360911e-02 3.7000356e-03
3.3955011e-01 2.4624044e-02 3.8014656e-03
3.4374800e-01 2.2654300e-02 3.7469600e-03
3.4760311e-01 2.0451678e-02 3.5365189e-03
3.5111544e-01 1.8016178e-02 3.1701422e-03
3.5428500e-01 1.5347800e-02 2.6478300e-03
2.0777000e-01 7.6434300e-02 -9.7488200e-04
2.0923067e-01 7.4417889e-02 -1.0861052e-03