# vtk DataFile Version 2.0
test
ASCII
DATASET POLYDATA
POINTS 4361 float
3.4984572e+00 6.5273408e+00 1.1865047e+01
3.5966671e+00 6.5974287e+00 1.1732553e+01
3.6974294e+00 6.6676786e+00 1.1602276e+01
3.8007440e+00 6.7380904e+00 1.1474217e+01
3.9066110e+00 6.8086641e+00 1.1348376e+01
4.0150302e+00 6.8793997e+00 1.1224752e+01
4.1260018e+00 6.9502972e+00 1.1103345e+01
4.1260018e+00 6.9502972e+00 1.1103345e+01
4.2427780e+00 7.0228410e+00 1.0986116e+01
4.3666168e+00 7.0947350e+00 1.0878801e+01
4.4975185e+00 7.1659790e+00 1.0781400e+01
4.6354828e+00 7.2365732e+00 1.0693914e+01
4.7805098e+00 7.3065175e+00 1.0616342e+01
4.9325996e+00 7.3758118e+00 1.0548684e+01
4.9325996e+00 7.3758118e+00 1.0548684e+01
5.0933819e+00 7.4421172e+00 1.0499884e+01
5.2567814e+00 7.5047468e+00 1.0463954e+01
5.4227980e+00 7.5637005e+00 1.0440891e+01
5.5914318e+00 7.6189785e+00 1.0430697e+01
5.7626829e+00 7.6705806e+00 1.0433371e+01
5.9365511e+00 7.7185070e+00 1.0448913e+01
5.9365511e+00 7.7185070e+00 1.0448913e+01
6.1089639e+00 7.7618784e+00 1.0472151e+01
6.2813659e+00 7.8020160e+00 1.0499108e+01
6.4537572e+00 7.8389197e+00 1.0529783e+01
6.6261377e+00 7.8725895e+00 1.0564177e+01
6.7985075e+00 7.9030255e+00 1.0602289e+01
6.9708666e+00 7.9302277e+00 1.0644119e+01
6.9708666e+00 7.9302277e+00 1.0644119e+01
7.1436033e+00 7.9548839e+00 1.0685925e+01
7.3173175e+00 7.9768718e+00 1.0723733e+01
7.4920092e+00 7.9961916e+00 1.0757543e+01
7.6676784e+00 8.0128431e+00 1.0787353e+01
7.8443251e+00 8.0268264e+00 1.0813166e+01
8.0219493e+00 8.0381414e+00 1.0834980e+01
8.0219493e+00 8.0381414e+00 1.0834980e+01
8.2023017e+00 8.0465782e+00 1.0848028e+01
8.3810758e+00 8.0521180e+00 1.0847767e+01
8.5582714e+00 8.0547607e+00 1.0834197e+01
8.7338886e+00 8.0545064e+00 1.0807319e+01
8.9079274e+00 8.0513550e+00 1.0767133e+01
9.0803878e+00 8.0453066e+00 1.0713637e+01
9.0803878e+00 8.0453066e+00 1.0713637e+01
9.2454165e+00 8.0362785e+00 1.0641359e+01
9.4033835e+00 8.0257449e+00 1.0558575e+01
9.5542890e+00 8.0137061e+00 1.0465284e+01
9.6981329e+00 8.0001618e+00 1.0361487e+01
9.8349152e+00 7.9851123e+00 1.0247183e+01
9.9646359e+00 7.9685573e+00 1.0122372e+01
9.9646359e+00 7.9685573e+00 1.0122372e+01
1.0087146e+01 7.9530933e+00 9.9925516e+00
1.0207120e+01 7.9371459e+00 9.8605901e+00
1.0324556e+01 7.9207153e+00 9.7264879e+00
1.0439455e+01 7.9038013e+00 9.5902450e+00
1.0551816e+01 7.8864041e+00 9.4518614e+00
1.0661641e+01 7.8685236e+00 9.3113371e+00
1.0661641e+01 7.8685236e+00 9.3113371e+00
1.0565518e+01 7.8041386e+00 9.1683323e+00
1.0470574e+01 7.7389819e+00 9.0249178e+00
1.0376808e+01 7.6730534e+00 8.8810937e+00
1.0284222e+01 7.6063531e+00 8.7368598e+00
1.0192814e+01 7.5388811e+00 8.5922162e+00
1.0102585e+01 7.4706373e+00 8.4471628e+00
1.0102585e+01 7.4706373e+00 8.4471628e+00
1.0014744e+01 7.4028625e+00 8.3001050e+00
9.9315721e+00 7.3336333e+00 8.1514058e+00
9.8530685e+00 7.2629495e+00 8.0010650e+00
9.7792335e+00 7.1908112e+00 7.8490829e+00
9.7100671e+00 7.1172184e+00 7.6954592e+00
9.6455692e+00 7.0421712e+00 7.5401942e+00
9.6455692e+00 7.0421712e+00 7.5401942e+00
9.5881655e+00 6.9649787e+00 7.3824351e+00
9.5398989e+00 6.8857241e+00 7.2237978e+00
9.5007695e+00 6.8044073e+00 7.0642822e+00
9.4707772e+00 6.7210283e+00 6.9038882e+00
9.4499221e+00 6.6355872e+00 6.7426159e+00
9.4382041e+00 6.5480839e+00 6.5804653e+00
9.4382041e+00 6.5480839e+00 6.5804653e+00
9.4387016e+00 6.4586277e+00 6.4188254e+00
9.4492732e+00 6.3681111e+00 6.2594405e+00
9.4699188e+00 6.2765341e+00 6.1023107e+00
9.5006384e+00 6.1838967e+00 5.9474360e+00
9.5414322e+00 6.0901988e+00 5.7948163e+00
9.5922999e+00 5.9954406e+00 5.6444516e+00
9.5922999e+00 5.9954406e+00 5.6444516e+00
9.6513241e+00 5.9004835e+00 5.4981285e+00
9.7157943e+00 5.8050585e+00 5.3549736e+00
9.7857103e+00 5.7091655e+00 5.2149868e+00
9.8610722e+00 5.6128045e+00 5.0781683e+00
9.9418801e+00 5.5159757e+00 4.9445179e+00
1.0028134e+01 5.4186788e+00 4.8140357e+00
1.0028134e+01 5.4186788e+00 4.8140357e+00
1.0117293e+01 5.3210452e+00 4.6862808e+00
1.0207985e+01 5.2224012e+00 4.5605037e+00
1.0300209e+01 5.1227467e+00 4.4367042e+00
1.0393964e+01 5.0220817e+00 4.3148824e+00
1.0489252e+01 4.9204063e+00 4.1950383e+00
1.0586072e+01 4.8177204e+00 4.0771719e+00
1.0586072e+01 4.8177204e+00 4.0771719e+00
1.0682790e+01 4.7134207e+00 3.9606729e+00
1.0777880e+01 4.6069763e+00 3.8448873e+00
1.0871341e+01 4.4983871e+00 3.7298151e+00
1.0963174e+01 4.3876533e+00 3.6154562e+00
1.1053378e+01 4.2747747e+00 3.5018108e+00
1.1141953e+01 4.1597514e+00 3.3888787e+00
1.1141953e+01 4.1597514e+00 3.3888787e+00
1.1227408e+01 4.0419002e+00 3.2758972e+00
1.1307222e+01 3.9208746e+00 3.1629115e+00
1.1381395e+01 3.7966744e+00 3.0499217e+00
1.1449927e+01 3.6692997e+00 2.9369277e+00
1.1512818e+01 3.5387505e+00 2.8239296e+00
1.1570069e+01 3.4050267e+00 2.7109273e+00
1.1570069e+01 3.4050267e+00 2.7109273e+00
1.1619165e+01 3.2672595e+00 2.5978360e+00
1.1658258e+01 3.1272267e+00 2.4855102e+00
1.1687349e+01 2.9849286e+00 2.3739499e+00
1.1706438e+01 2.8403649e+00 2.2631551e+00
1.1715525e+01 2.6935358e+00 2.1531259e+00
1.1714610e+01 2.5444413e+00 2.0438621e+00
1.1714610e+01 2.5444413e+00 2.0438621e+00
1.1701267e+01 2.3949986e+00 1.9361591e+00
1.1678859e+01 2.2462215e+00 1.8306267e+00
1.1647386e+01 2.0981102e+00 1.7272649e+00
1.1606848e+01 1.9506645e+00 1.6260738e+00
1.1557245e+01 1.8038845e+00 1.5270534e+00
1.1498578e+01 1.6577701e+00 1.4302036e+00
1.1498578e+01 1.6577701e+00 1.4302036e+00
1.1432851e+01 1.5137416e+00 1.3359606e+00
1.1362581e+01 1.3710392e+00 1.2435162e+00
1.1287767e+01 1.2296630e+00 1.1528703e+00
1.1208410e+01 1.0896129e+00 1.0640229e+00
1.1124508e+01 9.5088909e-01 9.7697412e-01
1.1036063e+01 8.1349143e-01 8.9172387e-01
1.1036063e+01 8.1349143e-01 8.9172387e-01
1.0945483e+01 6.7691463e-01 8.0785576e-01
1.0853688e+01 5.4081589e-01 7.2456998e-01
1.0760679e+01 4.0519521e-01 6.4186654e-01
1.0666455e+01 2.7005260e-01 5.5974543e-01
1.0571017e+01 1.3538805e-01 4.7820665e-01
1.0474365e+01 1.2015700e-03 3.9725020e-01
1.3936240e+00 5.3012729e+00 1.1658519e+01
1.3692962e+00 5.2642175e+00 1.1471484e+01
1.3470388e+00 5.2262061e+00 1.1284447e+01
1.3268518e+00 5.1872388e+00 1.1097407e+01
1.3087352e+00 5.1473157e+00 1.0910364e+01
1.2926890e+00 5.1064366e+00 1.0723319e+01
1.2787132e+00 5.0646016e+00 1.0536271e+01
1.2787132e+00 5.0646016e+00 1.0536271e+01
1.2696807e+00 5.0229414e+00 1.0348258e+01
1.2684652e+00 4.9793623e+00 1.0161211e+01
1.2750666e+00 4.9338642e+00 9.9751297e+00
1.2894850e+00 4.8864471e+00 9.7900145e+00
1.3117203e+00 4.8371110e+00 9.6058653e+00
1.3417726e+00 4.7858560e+00 9.4226820e+00
1.3417726e+00 4.7858560e+00 9.4226820e+00
1.3848096e+00 4.7314230e+00 9.2419373e+00
1.4393036e+00 4.6746358e+00 9.0670299e+00
1.5052546e+00 4.6154944e+00 8.8979599e+00
1.5826625e+00 4.5539987e+00 8.7347271e+00
1.6715274e+00 4.4901488e+00 8.5773316e+00
1.7718492e+00 4.4239447e+00 8.4257734e+00
1.7718492e+00 4.4239447e+00 8.4257734e+00
1.8834308e+00 4.3559169e+00 8.2840823e+00
2.0015265e+00 4.2865904e+00 8.1498413e+00
2.1261366e+00 4.2159651e+00 8.0230505e+00
2.2572609e+00 4.1440410e+00 7.9037097e+00
2.3948995e+00 4.0708182e+00 7.7918191e+00
2.5390523e+00 3.9962966e+00 7.6873786e+00
2.5390523e+00 3.9962966e+00 7.6873786e+00
2.6851637e+00 3.9210019e+00 7.5880121e+00
2.8323406e+00 3.8441447e+00 7.4917166e+00
2.9805832e+00 3.7657250e+00 7.3984923e+00
3.1298914e+00 3.6857427e+00 7.3083389e+00
3.2802652e+00 3.6041979e+00 7.2212566e+00
3.4317046e+00 3.5210907e+00 7.1372454e+00
3.4317046e+00 3.5210907e+00 7.1372454e+00
3.5829125e+00 3.4359814e+00 7.0547444e+00
3.7318231e+00 3.3480558e+00 6.9713837e+00
3.8784365e+00 3.2573139e+00 6.8871634e+00
4.0227527e+00 3.1637555e+00 6.8020834e+00
4.1647716e+00 3.0673808e+00 6.7161439e+00
4.3044933e+00 2.9681896e+00 6.6293447e+00
4.3044933e+00 2.9681896e+00 6.6293447e+00
4.4405099e+00 2.8651865e+00 6.5393969e+00
4.5688458e+00 2.7582369e+00 6.4450186e+00
4.6895012e+00 2.6473406e+00 6.3462098e+00
4.8024759e+00 2.5324978e+00 6.2429704e+00
4.9077701e+00 2.4137084e+00 6.1353006e+00
5.0053836e+00 2.2909725e+00 6.0232002e+00
5.0053836e+00 2.2909725e+00 6.0232002e+00
5.0897819e+00 2.1636451e+00 5.9042871e+00
5.1614698e+00 2.0350553e+00 5.7814341e+00
5.2204472e+00 1.9052030e+00 5.6546414e+00
5.2667142e+00 1.7740883e+00 5.5239088e+00
5.3002708e+00 1.6417111e+00 5.3892364e+00
5.3211169e+00 1.5080715e+00 5.2506241e+00
5.3211169e+00 1.5080715e+00 5.2506241e+00
5.3291427e+00 1.3763823e+00 5.1102704e+00
5.3292610e+00 1.2459787e+00 4.9693508e+00
5.3214718e+00 1.1168606e+00 4.8278654e+00
5.3057751e+00 9.8902819e-01 4.6858140e+00
5.2821708e+00 8.6248136e-01 4.5431967e+00
5.2506591e+00 7.3722012e-01 4.4000136e+00
5.2506591e+00 7.3722012e-01 4.4000136e+00
5.2151969e+00 6.1302207e-01 4.2576808e+00
5.1776299e+00 4.8937546e-01 4.1154366e+00
5.1379582e+00 3.6628029e-01 3.9732808e+00
5.0961817e+00 2.4373657e-01 3.8312135e+00
5.0523004e+00 1.2174428e-01 3.6892347e+00
5.0063143e+00 3.0344500e-04 3.5473444e+00
1.7562400e-01 5.0696403e+00 1.3917725e+01
2.2883301e-01 5.1731404e+00 1.3759486e+01
2.9529403e-01 5.2777264e+00 1.3611334e+01
3.7500707e-01 5.3833982e+00 1.3473270e+01
4.6797211e-01 5.4901559e+00 1.3345293e+01
5.7418917e-01 5.5979995e+00 1.3227404e+01
6.9365824e-01 5.7069289e+00 1.3119602e+01
6.9365824e-01 5.7069289e+00 1.3119602e+01
8.4718890e-01 5.8090337e+00 1.3056035e+01
1.0076835e+00 5.9021281e+00 1.3008236e+01
1.1751420e+00 5.9862120e+00 1.2976206e+01
1.3495644e+00 6.0612854e+00 1.2959945e+01
1.5309508e+00 6.1273484e+00 1.2959452e+01
1.7193010e+00 6.1844009e+00 1.2974728e+01
1.7193010e+00 6.1844009e+00 1.2974728e+01
1.9091393e+00 6.2364731e+00 1.2989176e+01
2.0961245e+00 6.2841029e+00 1.2984840e+01
2.2802568e+00 6.3272902e+00 1.2961719e+01
2.4615360e+00 6.3660351e+00 1.2919814e+01
2.6399622e+00 6.4003376e+00 1.2859124e+01
2.8155355e+00 6.4301976e+00 1.2779650e+01
2.8155355e+00 6.4301976e+00 1.2779650e+01
2.9611026e+00 6.4534201e+00 1.2653003e+01
3.0939710e+00 6.4738298e+00 1.2516040e+01
3.2141407e+00 6.4914267e+00 1.2368764e+01
3.3216116e+00 6.5062109e+00 1.2211173e+01
[...]
POINT_DATA 4361
VECTORS U float
2.0155500e-01 6.4492300e-02 -2.2100300e-03
2.0392933e-01 6.3084133e-02 -1.0102444e-03
2.0622067e-01 6.1515133e-02 8.7755556e-05
2.0842900e-01 5.9785300e-02 1.0839700e-03
2.1055433e-01 5.7894633e-02 1.9783989e-03
2.1259667e-01 5.5843133e-02 2.7710422e-03
2.1455600e-01 5.3630800e-02 3.4619000e-03
2.1455600e-01 5.3630800e-02 3.4619000e-03
2.1614233e-01 5.1866867e-02 4.1079556e-03
2.1760100e-01 4.9920767e-02 4.5428156e-03
2.1893200e-01 4.7792500e-02 4.7664800e-03
2.2013533e-01 4.5482067e-02 4.7789489e-03
2.2121100e-01 4.2989467e-02 4.5802222e-03
2.2215900e-01 4.0314700e-02 4.1703000e-03
2.2215900e-01 4.0314700e-02 4.1703000e-03
2.2330056e-01 3.7351489e-02 4.0730267e-03
2.2431289e-01 3.4575422e-02 4.0711400e-03
2.2519600e-01 3.1986500e-02 4.1646400e-03
2.2594989e-01 2.9584722e-02 4.3535267e-03
2.2657456e-01 2.7370089e-02 4.6378000e-03
2.2707000e-01 2.5342600e-02 5.0174600e-03
2.2707000e-01 2.5342600e-02 5.0174600e-03
2.2753378e-01 2.3366767e-02 4.8278644e-03
2.2793144e-01 2.1549067e-02 4.6809644e-03
2.2826300e-01 1.9889500e-02 4.5767600e-03
2.2852844e-01 1.8388067e-02 4.5152511e-03
2.2872778e-01 1.7044767e-02 4.4964378e-03
2.2886100e-01 1.5859600e-02 4.5203200e-03
2.2886100e-01 1.5859600e-02 4.5203200e-03
2.2892122e-01 1.4751444e-02 4.6812522e-03
2.2895789e-01 1.3731411e-02 4.8956956e-03
2.2897100e-01 1.2799500e-02 5.1636500e-03
2.2896056e-01 1.1955711e-02 5.4851156e-03
2.2892656e-01 1.1200044e-02 5.8600922e-03
2.2886900e-01 1.0532500e-02 6.2885800e-03
2.2886900e-01 1.0532500e-02 6.2885800e-03
2.2883356e-01 9.8435522e-03 6.6738278e-03
2.2878456e-01 9.2713789e-03 6.9443344e-03
2.2872200e-01 8.8159800e-03 7.1001000e-03
2.2864589e-01 8.4773556e-03 7.1411244e-03
2.2855622e-01 8.2555056e-03 7.0674078e-03
2.2845300e-01 8.1504300e-03 6.8789500e-03
2.2845300e-01 8.1504300e-03 6.8789500e-03
2.2841078e-01 8.2207889e-03 6.8127211e-03
2.2813711e-01 8.4147556e-03 6.4937978e-03
2.2763200e-01 8.7323300e-03 5.9221800e-03
2.2689544e-01 9.1735122e-03 5.0978678e-03
2.2592744e-01 9.7383022e-03 4.0208611e-03
2.2472800e-01 1.0426700e-02 2.6911600e-03
2.2472800e-01 1.0426700e-02 2.6911600e-03
2.2262722e-01 1.2639311e-02 5.2650333e-04
2.2062856e-01 1.4668244e-02 -1.4609700e-03
2.1873200e-01 1.6513500e-02 -3.2712600e-03
2.1693756e-01 1.8175078e-02 -4.9043667e-03
2.1524522e-01 1.9652978e-02 -6.3602900e-03
2.1365500e-01 2.0947200e-02 -7.6390300e-03
2.1365500e-01 2.0947200e-02 -7.6390300e-03
2.1239367e-01 2.0210144e-02 -6.4039044e-03
2.1096867e-01 1.9215944e-02 -4.9693211e-03
2.0938000e-01 1.7964600e-02 -3.3352800e-03
2.0762767e-01 1.6456111e-02 -1.5017811e-03
2.0571167e-01 1.4690478e-02 5.3117556e-04
2.0363200e-01 1.2667700e-02 2.7635900e-03
2.0363200e-01 1.2667700e-02 2.7635900e-03
2.0142456e-01 1.2164922e-02 4.3277444e-03
1.9911722e-01 1.1766289e-02 5.8092911e-03
1.9671000e-01 1.1471800e-02 7.2082300e-03
1.9420289e-01 1.1281456e-02 8.5245611e-03
1.9159589e-01 1.1195256e-02 9.7582844e-03
1.8888900e-01 1.1213200e-02 1.0909400e-02
1.8888900e-01 1.1213200e-02 1.0909400e-02
1.8620256e-01 1.1371467e-02 1.1847867e-02
1.8335322e-01 1.1507667e-02 1.2656700e-02
1.8034100e-01 1.1621800e-02 1.3335900e-02
1.7716589e-01 1.1713867e-02 1.3885467e-02
1.7382789e-01 1.1783867e-02 1.4305400e-02
1.7032700e-01 1.1831800e-02 1.4595700e-02
1.7032700e-01 1.1831800e-02 1.4595700e-02
1.6666644e-01 1.1837267e-02 1.4657178e-02
1.6320078e-01 1.1759867e-02 1.4586811e-02
1.5993000e-01 1.1599600e-02 1.4384600e-02
1.5685411e-01 1.1356467e-02 1.4050544e-02
1.5397311e-01 1.1030467e-02 1.3584644e-02
1.5128700e-01 1.0621600e-02 1.2986900e-02
1.5128700e-01 1.0621600e-02 1.2986900e-02
1.4861356e-01 1.0116496e-02 1.2353376e-02
1.4601422e-01 9.5366356e-03 1.1710609e-02
1.4348900e-01 8.8820200e-03 1.1058600e-02
1.4103789e-01 8.1526489e-03 1.0397349e-02
1.3866089e-01 7.3485222e-03 9.7268556e-03
1.3635800e-01 6.4696400e-03 9.0471200e-03
1.3635800e-01 6.4696400e-03 9.0471200e-03
1.3409456e-01 5.6764889e-03 8.2843933e-03
1.3184922e-01 4.8812089e-03 7.5035400e-03
1.2962200e-01 4.0838000e-03 6.7045600e-03
1.2741289e-01 3.2842622e-03 5.8874533e-03
1.2522189e-01 2.4825956e-03 5.0522200e-03
1.2304900e-01 1.6788000e-03 4.1988600e-03
1.2304900e-01 1.6788000e-03 4.1988600e-03
1.2077856e-01 7.0773000e-04 3.4406433e-03
1.1840122e-01 -3.0415667e-04 2.6543633e-03
1.1591700e-01 -1.3568600e-03 1.8400200e-03
1.1332589e-01 -2.4503800e-03 9.9761333e-04
1.1062789e-01 -3.5847167e-03 1.2714333e-04
1.0782300e-01 -4.7598700e-03 -7.7139000e-04
1.0782300e-01 -4.7598700e-03 -7.7139000e-04
1.0477197e-01 -5.9297333e-03 -1.7724522e-03
1.0146100e-01 -7.0877800e-03 -2.7485089e-03
9.7890100e-02 -8.2340100e-03 -3.6995600e-03
9.4059267e-02 -9.3684233e-03 -4.6256056e-03
8.9968500e-02 -1.0491020e-02 -5.5266456e-03
8.5617800e-02 -1.1601800e-02 -6.4026800e-03
8.5617800e-02 -1.1601800e-02 -6.4026800e-03
8.1266100e-02 -1.2722222e-02 -6.9285533e-03
7.6800067e-02 -1.3644022e-02 -7.3289833e-03
7.2219700e-02 -1.4367200e-02 -7.6039700e-03
6.7525000e-02 -1.4891756e-02 -7.7535133e-03
6.2715967e-02 -1.5217689e-02 -7.7776133e-03
5.7792600e-02 -1.5345000e-02 -7.6762700e-03
5.7792600e-02 -1.5345000e-02 -7.6762700e-03
5.2823844e-02 -1.4878322e-02 -7.7836767e-03
4.8094078e-02 -1.4254489e-02 -7.8161600e-03
4.3603300e-02 -1.3473500e-02 -7.7737200e-03
3.9351511e-02 -1.2535356e-02 -7.6563567e-03
3.5338711e-02 -1.1440056e-02 -7.4640700e-03
3.1564900e-02 -1.0187600e-02 -7.1968600e-03
3.1564900e-02 -1.0187600e-02 -7.1968600e-03
2.7806589e-02 -8.8402956e-03 -6.8632611e-03
2.4273556e-02 -7.5274489e-03 -6.4641111e-03
2.0965800e-02 -6.2490600e-03 -5.9994100e-03
1.7883322e-02 -5.0051289e-03 -5.4691578e-03
1.5026122e-02 -3.7956556e-03 -4.8733544e-03
1.2394200e-02 -2.6206400e-03 -4.2120000e-03
1.2394200e-02 -2.6206400e-03 -4.2120000e-03
1.0142446e-02 -1.8230261e-03 -3.3751802e-03
8.0186958e-03 -1.0896438e-03 -2.5408636e-03
6.0229500e-03 -4.2049300e-04 -1.7090500e-03
4.1552084e-03 1.8442622e-04 -8.7973956e-04
2.4154711e-03 7.2511389e-04 -5.2932222e-05
8.0373800e-04 1.2015700e-03 7.7137200e-04
1.7550400e-01 8.9760800e-02 1.3964000e-02
1.7376311e-01 8.8936578e-02 1.4450233e-02
1.7179244e-01 8.7742744e-02 1.5014367e-02
1.6959200e-01 8.6179300e-02 1.5656400e-02
1.6716178e-01 8.4246244e-02 1.6376333e-02
1.6450178e-01 8.1943578e-02 1.7174167e-02
1.6161200e-01 7.9271300e-02 1.8049900e-02
1.6161200e-01 7.9271300e-02 1.8049900e-02
1.5917333e-01 7.7978322e-02 1.8564467e-02
1.5659000e-01 7.6614922e-02 1.8989867e-02
1.5386200e-01 7.5181100e-02 1.9326100e-02
1.5098933e-01 7.3676856e-02 1.9573167e-02
1.4797200e-01 7.2102189e-02 1.9731067e-02
1.4481000e-01 7.0457100e-02 1.9799800e-02
1.4481000e-01 7.0457100e-02 1.9799800e-02
1.4188733e-01 6.8434256e-02 1.9859289e-02
1.3878633e-01 6.6250022e-02 1.9708656e-02
1.3550700e-01 6.3904400e-02 1.9347900e-02
1.3204933e-01 6.1397389e-02 1.8777022e-02
1.2841333e-01 5.8728989e-02 1.7996022e-02
1.2459900e-01 5.5899200e-02 1.7004900e-02
1.2459900e-01 5.5899200e-02 1.7004900e-02
1.2115122e-01 5.2803011e-02 1.5903867e-02
1.1810656e-01 4.9706544e-02 1.5107333e-02
1.1546500e-01 4.6609800e-02 1.4615300e-02
1.1322656e-01 4.3512778e-02 1.4427767e-02
1.1139122e-01 4.0415478e-02 1.4544733e-02
1.0995900e-01 3.7317900e-02 1.4966200e-02
1.0995900e-01 3.7317900e-02 1.4966200e-02
1.0815821e-01 3.4438267e-02 1.4968400e-02
1.0633254e-01 3.1643833e-02 1.4888933e-02
1.0448200e-01 2.8934600e-02 1.4727800e-02
1.0260658e-01 2.6310567e-02 1.4485000e-02
1.0070628e-01 2.3771733e-02 1.4160533e-02
9.8781100e-02 2.1318100e-02 1.3754400e-02
9.8781100e-02 2.1318100e-02 1.3754400e-02
9.7129956e-02 1.8909343e-02 1.3777656e-02
9.5394022e-02 1.6579043e-02 1.3695456e-02
9.3573300e-02 1.4327200e-02 1.3507800e-02
9.1667789e-02 1.2153813e-02 1.3214689e-02
8.9677489e-02 1.0058883e-02 1.2816122e-02
8.7602400e-02 8.0424100e-03 1.2312100e-02
8.7602400e-02 8.0424100e-03 1.2312100e-02
8.5372178e-02 6.1741300e-03 1.1538334e-02
8.2885844e-02 4.3781433e-03 1.0672001e-02
8.0143400e-02 2.6544500e-03 9.7131000e-03
7.7144844e-02 1.0030500e-03 8.6616311e-03
7.3890178e-02 -5.7605667e-04 7.5175944e-03
7.0379400e-02 -2.0828700e-03 6.2809900e-03
7.0379400e-02 -2.0828700e-03 6.2809900e-03
6.6070967e-02 -3.5660656e-03 4.9495982e-03
6.1613633e-02 -4.7544822e-03 3.7456749e-03
5.7007400e-02 -5.6481200e-03 2.6692200e-03
5.2252267e-02 -6.2469789e-03 1.7202336e-03
4.7348233e-02 -6.5510589e-03 8.9871556e-04
4.2295300e-02 -6.5603600e-03 2.0466600e-04
4.2295300e-02 -6.5603600e-03 2.0466600e-04
3.7515756e-02 -6.0092122e-03 -5.2752556e-04
3.2952256e-02 -5.3653889e-03 -1.1167276e-03
2.8604800e-02 -4.6288900e-03 -1.5629400e-03
2.4473389e-02 -3.7997156e-03 -1.8661629e-03
2.0558022e-02 -2.8778656e-03 -2.0263962e-03
1.6858700e-02 -1.8633400e-03 -2.0436400e-03
1.6858700e-02 -1.8633400e-03 -2.0436400e-03
1.3618652e-02 -1.3240317e-03 -1.6376141e-03
1.0565015e-02 -8.5599433e-04 -1.2044934e-03
7.6977900e-03 -4.5922800e-04 -7.4427800e-04
5.0169769e-03 -1.3373267e-04 -2.5696778e-04
2.5225756e-03 1.2049167e-04 2.5743722e-04
2.1458600e-04 3.0344500e-04 7.9893700e-04
1.7562400e-01 9.9935900e-02 -2.0580900e-03
1.7813556e-01 1.0036183e-01 -9.0992111e-04
1.8053622e-01 1.0043820e-01 1.8229222e-04
1.8282600e-01 1.0016500e-01 1.2185500e-03
1.8500489e-01 9.9542233e-02 2.1988522e-03
1.8707289e-01 9.8569900e-02 3.1231989e-03
1.8903000e-01 9.7248000e-02 3.9915900e-03
1.8903000e-01 9.7248000e-02 3.9915900e-03
1.9076700e-01 9.4888833e-02 4.4852889e-03
1.9238100e-01 9.2307700e-02 4.6683422e-03
1.9387200e-01 8.9504600e-02 4.5407500e-03
1.9524000e-01 8.6479533e-02 4.1025122e-03
1.9648500e-01 8.3232500e-02 3.3536289e-03
1.9760700e-01 7.9763500e-02 2.2941000e-03
1.9760700e-01 7.9763500e-02 2.2941000e-03
1.9866356e-01 7.6073578e-02 1.3734967e-03
1.9949856e-01 7.2803511e-02 5.2165000e-04
2.0011200e-01 6.9953300e-02 -2.6144000e-04
2.0050389e-01 6.7522944e-02 -9.7577333e-04
2.0067422e-01 6.5512444e-02 -1.6213500e-03
2.0062300e-01 6.3921800e-02 -2.1981700e-03
2.0062300e-01 6.3921800e-02 -2.1981700e-03
2.0034778e-01 6.3692300e-02 -2.5380633e-03
2.0024478e-01 6.3592633e-02 -2.7427900e-03
2.0031400e-01 6.3622800e-02 -2.8123500e-03
2.0055544e-01 6.3782800e-02 -2.7467433e-03
2.0096911e-01 6.4072633e-02 -2.5459700e-03
2.0155500e-01 6.4492300e-02 -2.2100300e-03
1.6872500e-01 9.6741300e-02 5.5972200e-03
1.7039789e-01 9.6313522e-02 7.6446222e-03
1.7185356e-01 9.5591489e-02 9.4308489e-03
1.7309200e-01 9.4575200e-02 1.0955900e-02
1.7411322e-01 9.3264656e-02 1.2219776e-02
1.7491722e-01 9.1659856e-02 1.3222476e-02
1.7550400e-01 8.9760800e-02 1.3964000e-02
2.1365500e-01 2.0947200e-02 -7.6390300e-03
2.1221422e-01 1.8591558e-02 -7.3545011e-03
2.1074522e-01 1.6357458e-02 -7.0220678e-03
2.0924800e-01 1.4244900e-02 -6.6417300e-03
2.0772256e-01 1.2253884e-02 -6.2134878e-03
2.0616889e-01 1.0384411e-02 -5.7373411e-03
2.0458700e-01 8.6364800e-03 -5.2132900e-03
2.0458700e-01 8.6364800e-03 -5.2132900e-03
2.0371789e-01 7.5453700e-03 -5.1688300e-03
2.0260322e-01 6.5110133e-03 -4.8905233e-03
2.0124300e-01 5.5334100e-03 -4.3783700e-03
1.9963722e-01 4.6125600e-03 -3.6323700e-03
1.9778589e-01 3.7484633e-03 -2.6525233e-03
1.9568900e-01 2.9411200e-03 -1.4388300e-03
1.9568900e-01 2.9411200e-03 -1.4388300e-03
1.9340678e-01 1.9945521e-03 -4.1751667e-04
1.9104044e-01 1.1789388e-03 5.4164667e-04
1.8859000e-01 4.9428000e-04 1.4386600e-03
1.8605544e-01 -5.9424222e-05 2.2735233e-03
1.8343678e-01 -4.8217389e-04 3.0462367e-03
1.8073400e-01 -7.7396900e-04 3.7568000e-03
1.8073400e-01 -7.7396900e-04 3.7568000e-03
1.7673333e-01 -1.1172450e-03 4.5270222e-03
1.7260233e-01 -1.3833887e-03 5.1080689e-03
1.6834100e-01 -1.5724000e-03 5.4999400e-03
1.6394933e-01 -1.6842790e-03 5.7026356e-03
1.5942733e-01 -1.7190257e-03 5.7161556e-03
1.5477500e-01 -1.6766400e-03 5.5405000e-03
1.5477500e-01 -1.6766400e-03 5.5405000e-03
1.5084289e-01 -1.3288250e-03 5.3717956e-03
1.4692489e-01 -8.9138733e-04 5.1412089e-03
1.4302100e-01 -3.6432700e-04 4.8487400e-03
1.3913122e-01 2.5235600e-04 4.4943889e-03
1.3525556e-01 9.5866167e-04 4.0781556e-03
1.3139400e-01 1.7545900e-03 3.6000400e-03
1.3139400e-01 1.7545900e-03 3.6000400e-03
1.2748744e-01 2.3987889e-03 2.9576621e-03
1.2351778e-01 3.1101322e-03 2.3229021e-03
1.1948500e-01 3.8886200e-03 1.6957600e-03
1.1538911e-01 4.7342522e-03 1.0762358e-03
1.1123011e-01 5.6470289e-03 4.6432944e-04
1.0700800e-01 6.6269500e-03 -1.3995900e-04
1.0700800e-01 6.6269500e-03 -1.3995900e-04
1.0317714e-01 7.4468278e-03 -7.2279833e-04
9.9088078e-02 8.3166378e-03 -1.1947220e-03
9.4740800e-02 9.2363800e-03 -1.5557300e-03
9.0135311e-02 1.0206054e-02 -1.8058223e-03
8.5271611e-02 1.1225661e-02 -1.9449990e-03
8.0149700e-02 1.2295200e-02 -1.9732600e-03
8.0149700e-02 1.2295200e-02 -1.9732600e-03
7.4092367e-02 1.3688244e-02 -1.5553803e-03
6.8330700e-02 1.4763011e-02 -1.1147790e-03
6.2864700e-02 1.5519500e-02 -6.5145600e-04
5.7694367e-02 1.5957711e-02 -1.6541133e-04
5.2819700e-02 1.6077644e-02 3.4335500e-04
4.8240700e-02 1.5879300e-02 8.7484300e-04
4.8240700e-02 1.5879300e-02 8.7484300e-04
4.3453644e-02 1.5251698e-02 1.3609417e-03
3.9008778e-02 1.4475764e-02 1.7502407e-03
3.4906100e-02 1.3551500e-02 2.0427400e-03
3.1145611e-02 1.2478904e-02 2.2384397e-03
2.7727311e-02 1.1257978e-02 2.3373397e-03
2.4651200e-02 9.8887200e-03 2.3394400e-03
2.4651200e-02 9.8887200e-03 2.3394400e-03
2.1844520e-02 8.6465833e-03 2.4258267e-03
1.9162820e-02 7.4415733e-03 2.5175167e-03
1.6606100e-02 6.2736900e-03 2.6145100e-03
1.4174360e-02 5.1429333e-03 2.7168067e-03
1.1867600e-02 4.0493033e-03 2.8244067e-03
9.6858200e-03 2.9928000e-03 2.9373100e-03
9.6858200e-03 2.9928000e-03 2.9373100e-03
8.3775756e-03 2.5305867e-03 2.3672193e-03
7.0614289e-03 1.9707067e-03 1.8378827e-03
5.7373800e-03 1.3131600e-03 1.3493000e-03
4.4054289e-03 5.5794667e-04 9.0147133e-04
3.0655756e-03 -2.9493333e-04 4.9439667e-04
1.7178200e-03 -1.2454800e-03 1.2807600e-04
6.8490700e-01 5.1499900e-02 1.8551000e-02
6.8397433e-01 4.7867389e-02 1.9771367e-02
6.8293367e-01 4.4316989e-02 2.0959733e-02
6.8178500e-01 4.0848700e-02 2.2116100e-02
6.8052833e-01 3.7462522e-02 2.3240467e-02
6.7916367e-01 3.4158456e-02 2.4332833e-02
6.7769100e-01 3.0936500e-02 2.5393200e-02
6.7769100e-01 3.0936500e-02 2.5393200e-02
6.7640856e-01 2.8813200e-02 2.5997256e-02
6.7512989e-01 2.7288567e-02 2.6569422e-02
6.7385500e-01 2.6362600e-02 2.7109700e-02
6.7258389e-01 2.6035300e-02 2.7618089e-02
6.7131656e-01 2.6306667e-02 2.8094589e-02
6.7005300e-01 2.7176700e-02 2.8539200e-02
6.7005300e-01 2.7176700e-02 2.8539200e-02
6.6866689e-01 2.7959600e-02 2.8966722e-02
6.6704989e-01 2.8809833e-02 2.9438389e-02
6.6520200e-01 2.9727400e-02 2.9954200e-02
6.6312322e-01 3.0712300e-02 3.0514156e-02
6.6081356e-01 3.1764533e-02 3.1118256e-02
6.5827300e-01 3.2884100e-02 3.1766500e-02
6.5827300e-01 3.2884100e-02 3.1766500e-02
6.5490400e-01 3.4056544e-02 3.2791611e-02
6.5171067e-01 3.4693811e-02 3.3780011e-02
6.4869300e-01 3.4795900e-02 3.4731700e-02
6.4585100e-01 3.4362811e-02 3.5646678e-02
6.4318467e-01 3.3394544e-02 3.6524944e-02
6.4069400e-01 3.1891100e-02 3.7366500e-02
6.4069400e-01 3.1891100e-02 3.7366500e-02
6.3877056e-01 3.0211089e-02 3.7797522e-02
6.3695089e-01 2.8436389e-02 3.7956056e-02
6.3523500e-01 2.6567000e-02 3.7842100e-02
6.3362289e-01 2.4602922e-02 3.7455656e-02
6.3211456e-01 2.2544156e-02 3.6796722e-02
6.3071000e-01 2.0390700e-02 3.5865300e-02
6.3071000e-01 2.0390700e-02 3.5865300e-02
6.2764578e-01 2.2175544e-02 3.6050378e-02
6.2435278e-01 2.3862744e-02 3.6054644e-02
6.2083100e-01 2.5452300e-02 3.5878100e-02
6.1708044e-01 2.6944211e-02 3.5520744e-02
6.1310111e-01 2.8338478e-02 3.4982578e-02
6.0889300e-01 2.9635100e-02 3.4263600e-02
6.0889300e-01 2.9635100e-02 3.4263600e-02
6.0497011e-01 3.0333944e-02 3.2929211e-02
6.0137578e-01 3.0609444e-02 3.1518511e-02
5.9811000e-01 3.0461600e-02 3.0031500e-02
5.9517278e-01 2.9890411e-02 2.8468178e-02
5.9256411e-01 2.8895878e-02 2.6828544e-02
5.9028400e-01 2.7478000e-02 2.5112600e-02
5.9028400e-01 2.7478000e-02 2.5112600e-02
5.8841500e-01 2.5730644e-02 2.4119911e-02
5.8636967e-01 2.3904278e-02 2.3037811e-02
5.8414800e-01 2.1998900e-02 2.1866300e-02
5.8175000e-01 2.0014511e-02 2.0605378e-02
5.7917567e-01 1.7951111e-02 1.9255044e-02
5.7642500e-01 1.5808700e-02 1.7815300e-02
5.7642500e-01 1.5808700e-02 1.7815300e-02
5.7297144e-01 1.3634869e-02 1.5867199e-02
5.6910178e-01 1.1915036e-02 1.4064132e-02
5.6481600e-01 1.0649200e-02 1.2406100e-02
5.6011411e-01 9.8373622e-03 1.0893102e-02
5.5499611e-01 9.4795222e-03 9.5251389e-03
5.4946200e-01 9.5756800e-03 8.3022100e-03
5.4946200e-01 9.5756800e-03 8.3022100e-03
5.4363844e-01 1.0784522e-02 7.7033433e-03
5.3835811e-01 1.2010396e-02 7.2546000e-03
5.3362100e-01 1.3253300e-02 6.9559800e-03
5.2942711e-01 1.4513236e-02 6.8074833e-03
5.2577644e-01 1.5790202e-02 6.8091100e-03
5.2266900e-01 1.7084200e-02 6.9608600e-03
5.3165000e-01 2.2937500e-02 3.6073700e-03
5.3104178e-01 2.1253478e-02 3.6024989e-03
5.3007811e-01 1.9852844e-02 3.8231422e-03
5.2875900e-01 1.8735600e-02 4.2693000e-03
5.2708444e-01 1.7901744e-02 4.9409722e-03
5.2505444e-01 1.7351278e-02 5.8381589e-03
5.2266900e-01 1.7084200e-02 6.9608600e-03
6.5155200e-01 5.6842500e-02 1.7266600e-02
6.4962611e-01 5.5298133e-02 1.5850111e-02
6.4772344e-01 5.3738700e-02 1.4377911e-02
6.4584400e-01 5.2164200e-02 1.2850000e-02
6.4398778e-01 5.0574633e-02 1.1266378e-02
6.4215478e-01 4.8970000e-02 9.6270444e-03
6.4034500e-01 4.7350300e-02 7.9320000e-03
6.4034500e-01 4.7350300e-02 7.9320000e-03
6.3867211e-01 4.5421733e-02 6.3333911e-03
6.3702578e-01 4.3635367e-02 5.1685144e-03
6.3540600e-01 4.1991200e-02 4.4373700e-03
6.3381278e-01 4.0489233e-02 4.1399578e-03
6.3224611e-01 3.9129467e-02 4.2762778e-03
6.3070600e-01 3.7911900e-02 4.8463300e-03
6.3070600e-01 3.7911900e-02 4.8463300e-03
6.2818622e-01 3.7203689e-02 6.9880944e-03
6.2545289e-01 3.6667689e-02 9.1798178e-03
6.2250600e-01 3.6303900e-02 1.1421500e-02
6.1934556e-01 3.6112322e-02 1.3713141e-02
6.1597156e-01 3.6092956e-02 1.6054741e-02
6.1238400e-01 3.6245800e-02 1.8446300e-02
6.1238400e-01 3.6245800e-02 1.8446300e-02
6.0886289e-01 3.6909633e-02 2.1204344e-02
6.0520522e-01 3.7395333e-02 2.4035111e-02
6.0141100e-01 3.7702900e-02 2.6938600e-02
5.9748022e-01 3.7832333e-02 2.9914811e-02
5.9341289e-01 3.7783633e-02 3.2963744e-02
5.8920900e-01 3.7556800e-02 3.6085400e-02
5.8920900e-01 3.7556800e-02 3.6085400e-02
5.8512833e-01 3.5391833e-02 3.6160744e-02
5.8073900e-01 3.3371233e-02 3.5167544e-02
5.7604100e-01 3.1495000e-02 3.3105800e-02
5.7103433e-01 2.9763133e-02 2.9975511e-02
5.6571900e-01 2.8175633e-02 2.5776678e-02
5.6009500e-01 2.6732500e-02 2.0509300e-02
5.6009500e-01 2.6732500e-02 2.0509300e-02
5.5473944e-01 2.6132944e-02 1.6312259e-02
5.4962978e-01 2.5520211e-02 1.2667239e-02
5.4476600e-01 2.4894300e-02 9.5742400e-03
5.4014811e-01 2.4255211e-02 7.0332622e-03
5.3577611e-01 2.3602944e-02 5.0443056e-03
5.3165000e-01 2.2937500e-02 3.6073700e-03
3.8581300e-01 3.4747600e-02 -1.4563600e-04
3.9030933e-01 3.1546411e-02 3.5850167e-04
3.9558133e-01 2.8670044e-02 4.9960467e-04
4.0162900e-01 2.6118500e-02 2.7767300e-04
4.0845233e-01 2.3891778e-02 -3.0729333e-04
4.1605133e-01 2.1989878e-02 -1.2552943e-03
4.2442600e-01 2.0412800e-02 -2.5663300e-03
4.2442600e-01 2.0412800e-02 -2.5663300e-03
4.3177144e-01 2.1205778e-02 -2.7244403e-03
4.3867011e-01 2.2470244e-02 -2.6446903e-03
4.4512200e-01 2.4206200e-02 -2.3270800e-03
4.5112711e-01 2.6413644e-02 -1.7716095e-03
4.5668544e-01 2.9092578e-02 -9.7827872e-04
4.6179700e-01 3.2243000e-02 5.2912300e-05
4.6179700e-01 3.2243000e-02 5.2912300e-05
4.6669500e-01 3.5292522e-02 7.9308350e-04
4.7189733e-01 3.7754322e-02 1.5604927e-03
4.7740400e-01 3.9628400e-02 2.3551400e-03
4.8321500e-01 4.0914756e-02 3.1770253e-03
4.8933033e-01 4.1613389e-02 4.0261486e-03
4.9575000e-01 4.1724300e-02 4.9025100e-03
4.9575000e-01 4.1724300e-02 4.9025100e-03
5.0303111e-01 3.9446389e-02 5.2546478e-03
5.0979311e-01 3.6827189e-02 5.3795878e-03
5.1603600e-01 3.3866700e-02 5.2773300e-03
5.2175978e-01 3.0564922e-02 4.9478744e-03
5.2696444e-01 2.6921856e-02 4.3912211e-03
5.3165000e-01 2.2937500e-02 3.6073700e-03
3.1236300e-01 1.1472300e-01 -1.5382600e-03
3.1454133e-01 1.1169550e-01 -1.7185288e-03