# vtk DataFile Version 2.0
test
ASCII
DATASET POLYDATA
POINTS 4361 float
4.5652622e+00 6.8734755e+00 1.1859246e+01
4.6736234e+00 6.9355134e+00 1.1732130e+01
4.7840643e+00 6.9968909e+00 1.1606619e+01
4.8965850e+00 7.0576081e+00 1.1482715e+01
5.0111855e+00 7.1176649e+00 1.1360415e+01
5.1278658e+00 7.1770613e+00 1.1239722e+01
5.2466258e+00 7.2357974e+00 1.1120634e+01
5.2466258e+00 7.2357974e+00 1.1120634e+01
5.3695156e+00 7.2990874e+00 1.1005485e+01
5.4988358e+00 7.3610001e+00 1.0899116e+01
5.6345865e+00 7.4215355e+00 1.0801527e+01
5.7767675e+00 7.4806937e+00 1.0712718e+01
5.9253788e+00 7.5384746e+00 1.0632689e+01
6.0804206e+00 7.5948781e+00 1.0561441e+01
6.0804206e+00 7.5948781e+00 1.0561441e+01
6.2456102e+00 7.6466234e+00 1.0511100e+01
6.4129374e+00 7.6955613e+00 1.0474601e+01
6.5824020e+00 7.7416920e+00 1.0451943e+01
6.7540042e+00 7.7850154e+00 1.0443127e+01
6.9277439e+00 7.8255316e+00 1.0448153e+01
7.1036211e+00 7.8632404e+00 1.0467021e+01
7.1036211e+00 7.8632404e+00 1.0467021e+01
7.2777901e+00 7.8966127e+00 1.0490226e+01
7.4516878e+00 7.9274899e+00 1.0517226e+01
7.6253142e+00 7.9558722e+00 1.0548020e+01
7.7986693e+00 7.9817595e+00 1.0582608e+01
7.9717531e+00 8.0051518e+00 1.0620990e+01
8.1445656e+00 8.0260491e+00 1.0663167e+01
8.1445656e+00 8.0260491e+00 1.0663167e+01
8.3174121e+00 8.0447847e+00 1.0706126e+01
8.4911696e+00 8.0612336e+00 1.0745133e+01
8.6658382e+00 8.0753958e+00 1.0780188e+01
8.8414179e+00 8.0872712e+00 1.0811291e+01
9.0179086e+00 8.0968598e+00 1.0838440e+01
9.1953103e+00 8.1041617e+00 1.0861638e+01
9.1953103e+00 8.1041617e+00 1.0861638e+01
9.3754782e+00 8.1085225e+00 1.0875999e+01
9.5539745e+00 8.1105721e+00 1.0876483e+01
9.7307994e+00 8.1103102e+00 1.0863089e+01
9.9059527e+00 8.1077370e+00 1.0835816e+01
1.0079435e+01 8.1028525e+00 1.0794666e+01
1.0251245e+01 8.0956566e+00 1.0739638e+01
1.0251245e+01 8.0956566e+00 1.0739638e+01
1.0415841e+01 8.0859542e+00 1.0666347e+01
1.0572339e+01 8.0759631e+00 1.0581526e+01
1.0720737e+01 8.0656831e+00 1.0485174e+01
1.0861036e+01 8.0551144e+00 1.0377292e+01
1.0993237e+01 8.0442570e+00 1.0257880e+01
1.1117338e+01 8.0331107e+00 1.0126937e+01
1.1117338e+01 8.0331107e+00 1.0126937e+01
1.1229940e+01 8.0330920e+00 9.9879338e+00
1.1340702e+01 8.0314337e+00 9.8475393e+00
1.1449624e+01 8.0281358e+00 9.7057533e+00
1.1556705e+01 8.0231983e+00 9.5625759e+00
1.1661945e+01 8.0166211e+00 9.4180070e+00
1.1765346e+01 8.0084044e+00 9.2720467e+00
1.1765346e+01 8.0084044e+00 9.2720467e+00
1.1663414e+01 7.9390820e+00 9.1349803e+00
1.1561942e+01 7.8674312e+00 8.9988975e+00
1.1460928e+01 7.7934518e+00 8.8637982e+00
1.1360374e+01 7.7171439e+00 8.7296825e+00
1.1260279e+01 7.6385075e+00 8.5965503e+00
1.1160643e+01 7.5575426e+00 8.4644016e+00
1.1160643e+01 7.5575426e+00 8.4644016e+00
1.1061993e+01 7.4863049e+00 8.3258146e+00
1.0967435e+01 7.4140429e+00 8.1852917e+00
1.0876969e+01 7.3407564e+00 8.0428329e+00
1.0790594e+01 7.2664455e+00 7.8984383e+00
1.0708311e+01 7.1911103e+00 7.7521077e+00
1.0630120e+01 7.1147507e+00 7.6038414e+00
1.0630120e+01 7.1147507e+00 7.6038414e+00
1.0558909e+01 7.0376828e+00 7.4516754e+00
1.0495998e+01 6.9584566e+00 7.2980429e+00
1.0441389e+01 6.8770722e+00 7.1429439e+00
1.0395080e+01 6.7935294e+00 6.9863783e+00
1.0357073e+01 6.7078284e+00 6.8283462e+00
1.0327367e+01 6.6199692e+00 6.6688476e+00
1.0327367e+01 6.6199692e+00 6.6688476e+00
1.0309730e+01 6.5298809e+00 6.5089193e+00
1.0302520e+01 6.4383976e+00 6.3503075e+00
1.0305739e+01 6.3455193e+00 6.1930121e+00
1.0319385e+01 6.2512459e+00 6.0370333e+00
1.0343459e+01 6.1555774e+00 5.8823710e+00
1.0377961e+01 6.0585139e+00 5.7290252e+00
1.0377961e+01 6.0585139e+00 5.7290252e+00
1.0420848e+01 5.9607795e+00 5.5792551e+00
1.0469683e+01 5.8620874e+00 5.4326174e+00
1.0524467e+01 5.7624374e+00 5.2891123e+00
1.0585199e+01 5.6618295e+00 5.1487397e+00
1.0651880e+01 5.5602638e+00 5.0114996e+00
1.0724509e+01 5.4577402e+00 4.8773921e+00
1.0724509e+01 5.4577402e+00 4.8773921e+00
1.0800131e+01 5.3550486e+00 4.7456798e+00
1.0877336e+01 5.2513897e+00 4.6157498e+00
1.0956124e+01 5.1467636e+00 4.4876021e+00
1.1036494e+01 5.0411701e+00 4.3612368e+00
1.1118447e+01 4.9346094e+00 4.2366539e+00
1.1201983e+01 4.8270814e+00 4.1138532e+00
1.1201983e+01 4.8270814e+00 4.1138532e+00
1.1284782e+01 4.7174002e+00 3.9926239e+00
1.1365289e+01 4.6052750e+00 3.8720982e+00
1.1443503e+01 4.4907060e+00 3.7522761e+00
1.1519425e+01 4.3736931e+00 3.6331577e+00
1.1593055e+01 4.2542362e+00 3.5147428e+00
1.1664392e+01 4.1323355e+00 3.3970316e+00
1.1664392e+01 4.1323355e+00 3.3970316e+00
1.1731324e+01 4.0075543e+00 3.2791977e+00
1.1791439e+01 3.8800681e+00 3.1614969e+00
1.1844738e+01 3.7498767e+00 3.0439294e+00
1.1891219e+01 3.6169803e+00 2.9264950e+00
1.1930883e+01 3.4813787e+00 2.8091938e+00
1.1963730e+01 3.3430720e+00 2.6920258e+00
1.1963730e+01 3.3430720e+00 2.6920258e+00
1.1988502e+01 3.2010069e+00 2.5763182e+00
1.2003385e+01 3.0577247e+00 2.4620931e+00
1.2008377e+01 2.9132256e+00 2.3493505e+00
1.2003479e+01 2.7675094e+00 2.2380904e+00
1.1988690e+01 2.6205763e+00 2.1283128e+00
1.1964012e+01 2.4724261e+00 2.0200176e+00
1.1964012e+01 2.4724261e+00 2.0200176e+00
1.1928015e+01 2.3266211e+00 1.9121117e+00
1.1884414e+01 2.1819547e+00 1.8065596e+00
1.1833212e+01 2.0384267e+00 1.7033614e+00
1.1774406e+01 1.8960371e+00 1.6025171e+00
1.1707998e+01 1.7547861e+00 1.5040267e+00
1.1633987e+01 1.6146735e+00 1.4078901e+00
1.1633987e+01 1.6146735e+00 1.4078901e+00
1.1552401e+01 1.4768910e+00 1.3151068e+00
1.1467218e+01 1.3402367e+00 1.2243241e+00
1.1378438e+01 1.2047106e+00 1.1355419e+00
1.1286062e+01 1.0703128e+00 1.0487602e+00
1.1190088e+01 9.3704327e-01 9.6397908e-01
1.1090517e+01 8.0490197e-01 8.8119847e-01
1.1090517e+01 8.0490197e-01 8.8119847e-01
1.0990625e+01 6.7173749e-01 7.9999865e-01
1.0890039e+01 5.3881099e-01 7.1936152e-01
1.0788757e+01 4.0612246e-01 6.3928708e-01
1.0686781e+01 2.7367192e-01 5.5977532e-01
1.0584109e+01 1.4145936e-01 4.8082625e-01
1.0480742e+01 9.4847800e-03 4.0243986e-01
2.3458400e+00 5.7614711e+00 1.1718413e+01
2.3128653e+00 5.7196932e+00 1.1534205e+01
2.2806486e+00 5.6750014e+00 1.1350646e+01
2.2491898e+00 5.6273955e+00 1.1167734e+01
2.2184890e+00 5.5768757e+00 1.0985470e+01
2.1885461e+00 5.5234420e+00 1.0803853e+01
2.1593612e+00 5.4670943e+00 1.0622885e+01
2.1593612e+00 5.4670943e+00 1.0622885e+01
2.1380482e+00 5.4185018e+00 1.0438196e+01
2.1237516e+00 5.3677720e+00 1.0254056e+01
2.1164716e+00 5.3149051e+00 1.0070464e+01
2.1162081e+00 5.2599009e+00 9.8874198e+00
2.1229611e+00 5.2027595e+00 9.7049243e+00
2.1367306e+00 5.1434809e+00 9.5229772e+00
2.1367306e+00 5.1434809e+00 9.5229772e+00
2.1634839e+00 5.0792734e+00 9.3432096e+00
2.2004433e+00 5.0119721e+00 9.1681102e+00
2.2476086e+00 4.9415770e+00 8.9976790e+00
2.3049798e+00 4.8680880e+00 8.8319160e+00
2.3725570e+00 4.7915051e+00 8.6708211e+00
2.4503402e+00 4.7118285e+00 8.5143945e+00
2.4503402e+00 4.7118285e+00 8.5143945e+00
2.5419069e+00 4.6287305e+00 8.3672103e+00
2.6423480e+00 4.5441791e+00 8.2290448e+00
2.7516636e+00 4.4581743e+00 8.0998979e+00
2.8698537e+00 4.3707161e+00 7.9797696e+00
2.9969182e+00 4.2818046e+00 7.8686600e+00
3.1328573e+00 4.1914397e+00 7.7665691e+00
3.1328573e+00 4.1914397e+00 7.7665691e+00
3.2687643e+00 4.1012188e+00 7.6675651e+00
3.4055313e+00 4.0098576e+00 7.5710373e+00
3.5431582e+00 3.9173564e+00 7.4769858e+00
3.6816450e+00 3.8237149e+00 7.3854104e+00
3.8209918e+00 3.7289333e+00 7.2963114e+00
3.9611985e+00 3.6330116e+00 7.2096885e+00
3.9611985e+00 3.6330116e+00 7.2096885e+00
4.1025166e+00 3.5350859e+00 7.1266005e+00
4.2409012e+00 3.4345722e+00 7.0420909e+00
4.3763522e+00 3.3314705e+00 6.9561597e+00
4.5088697e+00 3.2257807e+00 6.8688069e+00
4.6384536e+00 3.1175029e+00 6.7800326e+00
4.7651039e+00 3.0066371e+00 6.6898367e+00
4.7651039e+00 3.0066371e+00 6.6898367e+00
4.8867708e+00 2.8927375e+00 6.5947516e+00
4.9992444e+00 2.7756066e+00 6.4947230e+00
5.1025248e+00 2.6552445e+00 6.3897510e+00
5.1966118e+00 2.5316511e+00 6.2798355e+00
5.2815057e+00 2.4048265e+00 6.1649766e+00
5.3572062e+00 2.2747707e+00 6.0451743e+00
5.3572062e+00 2.2747707e+00 6.0451743e+00
5.4158642e+00 2.1412807e+00 5.9187289e+00
5.4617327e+00 2.0079899e+00 5.7894596e+00
5.4948118e+00 1.8748983e+00 5.6573664e+00
5.5151015e+00 1.7420061e+00 5.5224493e+00
5.5226018e+00 1.6093131e+00 5.3847084e+00
5.5173126e+00 1.4768194e+00 5.2441435e+00
5.5173126e+00 1.4768194e+00 5.2441435e+00
5.5018435e+00 1.3484590e+00 5.1016910e+00
5.4799350e+00 1.2217236e+00 4.9591759e+00
5.4515870e+00 1.0966133e+00 4.8165982e+00
5.4167997e+00 9.7312807e-01 4.6739579e+00
5.3755729e+00 8.5126787e-01 4.5312551e+00
5.3279067e+00 7.3103273e-01 4.3884896e+00
5.3279067e+00 7.3103273e-01 4.3884896e+00
5.2780904e+00 6.0916832e-01 4.2485450e+00
5.2268963e+00 4.8747538e-01 4.1088434e+00
5.1743243e+00 3.6595391e-01 3.9693846e+00
5.1203744e+00 2.4460393e-01 3.8301688e+00
5.0650467e+00 1.2342541e-01 3.6911959e+00
5.0083412e+00 2.4183800e-03 3.5524658e+00
1.1270500e+00 5.5620524e+00 1.3896823e+01
1.1922452e+00 5.6680910e+00 1.3745036e+01
1.2700289e+00 5.7736443e+00 1.3603058e+01
1.3604011e+00 5.8787122e+00 1.3470889e+01
1.4633617e+00 5.9832948e+00 1.3348530e+01
1.5789107e+00 6.0873920e+00 1.3235979e+01
1.7070482e+00 6.1910039e+00 1.3133238e+01
1.7070482e+00 6.1910039e+00 1.3133238e+01
1.8678341e+00 6.2827544e+00 1.3072655e+01
2.0349547e+00 6.3644109e+00 1.3026274e+01
2.2084100e+00 6.4359734e+00 1.2994094e+01
2.3882000e+00 6.4974418e+00 1.2976116e+01
2.5743246e+00 6.5488161e+00 1.2972339e+01
2.7667840e+00 6.5900964e+00 1.2982763e+01
2.7667840e+00 6.5900964e+00 1.2982763e+01
2.9603902e+00 6.6251134e+00 1.2992990e+01
3.1503138e+00 6.6579393e+00 1.2984879e+01
3.3365548e+00 6.6885739e+00 1.2958432e+01
3.5191132e+00 6.7170174e+00 1.2913647e+01
3.6979891e+00 6.7432697e+00 1.2850526e+01
3.8731825e+00 6.7673308e+00 1.2769067e+01
3.8731825e+00 6.7673308e+00 1.2769067e+01
4.0184704e+00 6.7914126e+00 1.2642185e+01
4.1517818e+00 6.8129379e+00 1.2505401e+01
4.2731167e+00 6.8319069e+00 1.2358716e+01
4.3824751e+00 6.8483195e+00 1.2202128e+01
[...]
POINT_DATA 4361
VECTORS U float
1.2683600e+00 4.1062700e-01 -8.0109500e-03
1.2808856e+00 4.0116878e-01 -1.4333056e-03
1.2928556e+00 3.9072744e-01 4.4307378e-03
1.3042700e+00 3.7930300e-01 9.5811800e-03
1.3151289e+00 3.6689544e-01 1.4018021e-02
1.3254322e+00 3.5350478e-01 1.7741261e-02
1.3351800e+00 3.3913100e-01 2.0750900e-02
1.3351800e+00 3.3913100e-01 2.0750900e-02
1.3428800e+00 3.2811322e-01 2.3476944e-02
1.3498200e+00 3.1618589e-01 2.4857678e-02
1.3560000e+00 3.0334900e-01 2.4893100e-02
1.3614200e+00 2.8960256e-01 2.3583211e-02
1.3660800e+00 2.7494656e-01 2.0928011e-02
1.3699800e+00 2.5938100e-01 1.6927500e-02
1.3699800e+00 2.5938100e-01 1.6927500e-02
1.3755289e+00 2.4185767e-01 1.5288511e-02
1.3804689e+00 2.2539000e-01 1.4718311e-02
1.3848000e+00 2.0997800e-01 1.5216900e-02
1.3885222e+00 1.9562167e-01 1.6784278e-02
1.3916356e+00 1.8232100e-01 1.9420444e-02
1.3941400e+00 1.7007600e-01 2.3125400e-02
1.3941400e+00 1.7007600e-01 2.3125400e-02
1.3963600e+00 1.5810100e-01 2.2902667e-02
1.3982533e+00 1.4702300e-01 2.2798567e-02
1.3998200e+00 1.3684200e-01 2.2813100e-02
1.4010600e+00 1.2755800e-01 2.2946267e-02
1.4019733e+00 1.1917100e-01 2.3198067e-02
1.4025600e+00 1.1168100e-01 2.3568500e-02
1.4025600e+00 1.1168100e-01 2.3568500e-02
1.4027300e+00 1.0465230e-01 2.4882444e-02
1.4028100e+00 9.8093200e-02 2.6296044e-02
1.4028000e+00 9.2003700e-02 2.7809300e-02
1.4027000e+00 8.6383800e-02 2.9422211e-02
1.4025100e+00 8.1233500e-02 3.1134778e-02
1.4022300e+00 7.6552800e-02 3.2947000e-02
1.4022300e+00 7.6552800e-02 3.2947000e-02
1.4020100e+00 7.1787900e-02 3.4645656e-02
1.4016833e+00 6.7725467e-02 3.5660389e-02
1.4012500e+00 6.4365500e-02 3.5991200e-02
1.4007100e+00 6.1708000e-02 3.5638089e-02
1.4000633e+00 5.9752967e-02 3.4601056e-02
1.3993100e+00 5.8500400e-02 3.2880100e-02
1.3993100e+00 5.8500400e-02 3.2880100e-02
1.3988356e+00 5.7896544e-02 3.1800540e-02
1.3970922e+00 5.8632878e-02 2.9444507e-02
1.3940800e+00 6.0709400e-02 2.5812000e-02
1.3897989e+00 6.4126111e-02 2.0903020e-02
1.3842489e+00 6.8883011e-02 1.4717567e-02
1.3774300e+00 7.4980100e-02 7.2556400e-03
1.3774300e+00 7.4980100e-02 7.2556400e-03
1.3654211e+00 9.2638056e-02 -4.0912667e-03
1.3542111e+00 1.0895602e-01 -1.4511747e-02
1.3438000e+00 1.2393400e-01 -2.4005800e-02
1.3341878e+00 1.3757199e-01 -3.2573427e-02
1.3253744e+00 1.4986999e-01 -4.0214627e-02
1.3173600e+00 1.6082800e-01 -4.6929400e-02
1.3173600e+00 1.6082800e-01 -4.6929400e-02
1.3102900e+00 1.5515356e-01 -3.9755878e-02
1.3023367e+00 1.4766522e-01 -3.0989644e-02
1.2935000e+00 1.3836300e-01 -2.0630700e-02
1.2837800e+00 1.2724689e-01 -8.6790444e-03
1.2731767e+00 1.1431689e-01 4.8653222e-03
1.2616900e+00 9.9573000e-02 2.0002400e-02
1.2616900e+00 9.9573000e-02 2.0002400e-02
1.2486733e+00 9.5607311e-02 3.0037322e-02
1.2349800e+00 9.2175878e-02 3.9695222e-02
1.2206100e+00 8.9278700e-02 4.8976100e-02
1.2055633e+00 8.6915778e-02 5.7879956e-02
1.1898400e+00 8.5087111e-02 6.6406789e-02
1.1734400e+00 8.3792700e-02 7.4556600e-02
1.1734400e+00 8.3792700e-02 7.4556600e-02
1.1569456e+00 8.4075544e-02 8.1088111e-02
1.1394522e+00 8.4240211e-02 8.6901778e-02
1.1209600e+00 8.4286700e-02 9.1997600e-02
1.1014689e+00 8.4215011e-02 9.6375578e-02
1.0809789e+00 8.4025144e-02 1.0003571e-01
1.0594900e+00 8.3717100e-02 1.0297800e-01
1.0594900e+00 8.3717100e-02 1.0297800e-01
1.0376947e+00 8.3090511e-02 1.0475106e-01
1.0164480e+00 8.2046411e-02 1.0545372e-01
9.9575000e-01 8.0584800e-02 1.0508600e-01
9.7560067e-01 7.8705678e-02 1.0364789e-01
9.5600000e-01 7.6409044e-02 1.0113939e-01
9.3694800e-01 7.3694900e-02 9.7560500e-02
9.3694800e-01 7.3694900e-02 9.7560500e-02
9.1813744e-01 7.0412556e-02 9.3479944e-02
8.9990344e-01 6.6565556e-02 8.9354478e-02
8.8224600e-01 6.2153900e-02 8.5184100e-02
8.6516511e-01 5.7177589e-02 8.0968811e-02
8.4866078e-01 5.1636622e-02 7.6708611e-02
8.3273300e-01 4.5531000e-02 7.2403500e-02
8.3273300e-01 4.5531000e-02 7.2403500e-02
8.1693222e-01 3.9679856e-02 6.7683311e-02
8.0120022e-01 3.3869756e-02 6.2749644e-02
7.8553700e-01 2.8100700e-02 5.7602500e-02
7.6994256e-01 2.2372689e-02 5.2241878e-02
7.5441689e-01 1.6685722e-02 4.6667778e-02
7.3896000e-01 1.1039800e-02 4.0880200e-02
7.3896000e-01 1.1039800e-02 4.0880200e-02
7.2277033e-01 4.6872056e-03 3.5391669e-02
7.0581000e-01 -2.0053911e-03 2.9865302e-02
6.8807900e-01 -9.0379900e-03 2.4301100e-02
6.6957733e-01 -1.6410591e-02 1.8699062e-02
6.5030500e-01 -2.4123194e-02 1.3059189e-02
6.3026200e-01 -3.2175800e-02 7.3814800e-03
6.3026200e-01 -3.2175800e-02 7.3814800e-03
6.0868844e-01 -4.0275667e-02 1.5280278e-03
5.8567878e-01 -4.7894300e-02 -4.1630889e-03
5.6123300e-01 -5.5031700e-02 -9.6918700e-03
5.3535111e-01 -6.1687867e-02 -1.5058316e-02
5.0803311e-01 -6.7862800e-02 -2.0262426e-02
4.7927900e-01 -7.3556500e-02 -2.5304200e-02
4.7927900e-01 -7.3556500e-02 -2.5304200e-02
4.5060389e-01 -7.8974811e-02 -2.8446300e-02
4.2192656e-01 -8.3146044e-02 -3.0746000e-02
3.9324700e-01 -8.6070200e-02 -3.2203300e-02
3.6456522e-01 -8.7747278e-02 -3.2818200e-02
3.3588122e-01 -8.8177278e-02 -3.2590700e-02
3.0719500e-01 -8.7360200e-02 -3.1520800e-02
3.0719500e-01 -8.7360200e-02 -3.1520800e-02
2.7957178e-01 -8.3255756e-02 -3.1831067e-02
2.5364978e-01 -7.8521356e-02 -3.1883200e-02
2.2942900e-01 -7.3157000e-02 -3.1677200e-02
2.0690944e-01 -6.7162689e-02 -3.1213067e-02
1.8609111e-01 -6.0538422e-02 -3.0490800e-02
1.6697400e-01 -5.3284200e-02 -2.9510400e-02
1.6697400e-01 -5.3284200e-02 -2.9510400e-02
1.4735638e-01 -4.5690878e-02 -2.7717067e-02
1.2891071e-01 -3.8329944e-02 -2.5656200e-02
1.1163700e-01 -3.1201400e-02 -2.3327800e-02
9.5535244e-02 -2.4305244e-02 -2.0731867e-02
8.0605444e-02 -1.7641478e-02 -1.7868400e-02
6.6847600e-02 -1.1210100e-02 -1.4737400e-02
6.6847600e-02 -1.1210100e-02 -1.4737400e-02
5.5284901e-02 -7.0001639e-03 -1.1232287e-02
4.4369468e-02 -3.0945436e-03 -7.7493233e-03
3.4101300e-02 5.0676100e-04 -4.2885100e-03
2.4480398e-02 3.8037498e-03 -8.4984667e-04
1.5506761e-02 6.7964228e-03 2.5666667e-03
7.1803900e-03 9.4847800e-03 5.9610300e-03
1.1277200e+00 5.4995900e-01 7.3857800e-02
1.1173322e+00 5.4441233e-01 7.7171111e-02
1.1054022e+00 5.3653800e-01 8.1212844e-02
1.0919300e+00 5.2633600e-01 8.5983000e-02
1.0769156e+00 5.1380633e-01 9.1481578e-02
1.0603589e+00 4.9894900e-01 9.7708578e-02
1.0422600e+00 4.8176400e-01 1.0466400e-01
1.0422600e+00 4.8176400e-01 1.0466400e-01
1.0275408e+00 4.7353867e-01 1.0850278e-01
1.0118764e+00 4.6502467e-01 1.1183478e-01
9.9526700e-01 4.5622200e-01 1.1466000e-01
9.7771244e-01 4.4713067e-01 1.1697844e-01
9.5921278e-01 4.3775067e-01 1.1879011e-01
9.3976800e-01 4.2808200e-01 1.2009500e-01
9.3976800e-01 4.2808200e-01 1.2009500e-01
9.2056167e-01 4.1628467e-01 1.2113156e-01
8.9992600e-01 4.0358633e-01 1.2078889e-01
8.7786100e-01 3.8998700e-01 1.1906700e-01
8.5436667e-01 3.7548667e-01 1.1596589e-01
8.2944300e-01 3.6008533e-01 1.1148556e-01
8.0309000e-01 3.4378300e-01 1.0562600e-01
8.0309000e-01 3.4378300e-01 1.0562600e-01
7.7962733e-01 3.2561656e-01 9.9031867e-02
7.5892800e-01 3.0729522e-01 9.4310767e-02
7.4099200e-01 2.8881900e-01 9.1462700e-02
7.2581933e-01 2.7018789e-01 9.0487667e-02
7.1341000e-01 2.5140189e-01 9.1385667e-02
7.0376400e-01 2.3246100e-01 9.4156700e-02
7.0376400e-01 2.3246100e-01 9.4156700e-02
6.9175889e-01 2.1465511e-01 9.4521389e-02
6.7952322e-01 1.9735678e-01 9.4209589e-02
6.6705700e-01 1.8056600e-01 9.3221300e-02
6.5436022e-01 1.6428278e-01 9.1556522e-02
6.4143289e-01 1.4850711e-01 8.9215256e-02
6.2827500e-01 1.3323900e-01 8.6197500e-02
6.2827500e-01 1.3323900e-01 8.6197500e-02
6.1673411e-01 1.1801379e-01 8.5633767e-02
6.0447211e-01 1.0309539e-01 8.4402633e-02
5.9148900e-01 8.8483800e-02 8.2504100e-02
5.7778478e-01 7.4179022e-02 7.9938167e-02
5.6335944e-01 6.0181056e-02 7.6704833e-02
5.4821300e-01 4.6489900e-02 7.2804100e-02
5.4821300e-01 4.6489900e-02 7.2804100e-02
5.3163311e-01 3.3725067e-02 6.6892989e-02
5.1328444e-01 2.1747867e-02 6.0376389e-02
4.9316700e-01 1.0558300e-02 5.3254300e-02
4.7128078e-01 1.5636667e-04 4.5526722e-02
4.4762578e-01 -9.4579333e-03 3.7193656e-02
4.2220200e-01 -1.8284600e-02 2.8255100e-02
4.2220200e-01 -1.8284600e-02 2.8255100e-02
3.9215322e-01 -2.5930500e-02 1.9391412e-02
3.6187656e-01 -3.1819900e-02 1.1771132e-02
3.3137200e-01 -3.5952800e-02 5.3942600e-03
3.0063956e-01 -3.8329200e-02 2.6079556e-04
2.6967922e-01 -3.8949100e-02 -3.6292611e-03
2.3849100e-01 -3.7812500e-02 -6.2759100e-03
2.3849100e-01 -3.7812500e-02 -6.2759100e-03
2.1021652e-01 -3.3932530e-02 -9.1069389e-03
1.8362619e-01 -2.9620430e-02 -1.1291669e-02
1.5872000e-01 -2.4876200e-02 -1.2830100e-02
1.3549796e-01 -1.9699840e-02 -1.3722232e-02
1.1396006e-01 -1.4091350e-02 -1.3968066e-02
9.4106300e-02 -8.0507300e-03 -1.3567600e-02
9.4106300e-02 -8.0507300e-03 -1.3567600e-02
7.6512174e-02 -5.1777850e-03 -1.0773398e-02
5.9831374e-02 -2.7560773e-03 -7.7976778e-03
4.4063900e-02 -7.8560700e-04 -4.6404400e-03
2.9209751e-02 7.3362600e-04 -1.3016844e-03
1.5268928e-02 1.8016217e-03 2.2185889e-03
2.2414300e-03 2.4183800e-03 5.9203800e-03
1.1270500e+00 5.9234800e-01 -2.2960100e-02
1.1415478e+00 5.9531244e-01 -1.5360106e-02
1.1552711e+00 5.9635611e-01 -8.0942422e-03
1.1682200e+00 5.9547900e-01 -1.1625100e-03
1.1803944e+00 5.9268111e-01 5.4350911e-03
1.1917944e+00 5.8796244e-01 1.1698561e-02
1.2024200e+00 5.8132300e-01 1.7627900e-02
1.2024200e+00 5.8132300e-01 1.7627900e-02
1.2114122e+00 5.6860956e-01 2.1105956e-02
1.2196522e+00 5.5459056e-01 2.2706189e-02
1.2271400e+00 5.3926600e-01 2.2428600e-02
1.2338756e+00 5.2263589e-01 2.0273189e-02
1.2398589e+00 5.0470022e-01 1.6239956e-02
1.2450900e+00 4.8545900e-01 1.0328900e-02
1.2450900e+00 4.8545900e-01 1.0328900e-02
1.2499144e+00 4.6471389e-01 5.1871167e-03
1.2536878e+00 4.4663989e-01 5.6136667e-04
1.2564100e+00 4.3123700e-01 -3.5483500e-03
1.2580811e+00 4.1850522e-01 -7.1420333e-03
1.2587011e+00 4.0844456e-01 -1.0219683e-02
1.2582700e+00 4.0105500e-01 -1.2781300e-02
1.2582700e+00 4.0105500e-01 -1.2781300e-02
1.2577156e+00 4.0168478e-01 -1.3355228e-02
1.2580556e+00 4.0270078e-01 -1.3381561e-02
1.2592900e+00 4.0410300e-01 -1.2860300e-02
1.2614189e+00 4.0589144e-01 -1.1791444e-02
1.2644422e+00 4.0806611e-01 -1.0174994e-02
1.2683600e+00 4.1062700e-01 -8.0109500e-03
1.0935400e+00 5.7878200e-01 2.3024800e-02
1.1017589e+00 5.7775400e-01 3.5550911e-02
1.1089689e+00 5.7521567e-01 4.6455444e-02
1.1151700e+00 5.7116700e-01 5.5738400e-02
1.1203622e+00 5.6560800e-01 6.3399778e-02
1.1245456e+00 5.5853867e-01 6.9439578e-02
1.1277200e+00 5.4995900e-01 7.3857800e-02
1.3173600e+00 1.6082800e-01 -4.6929400e-02
1.3057278e+00 1.4226752e-01 -4.5180378e-02
1.2937378e+00 1.2445986e-01 -4.2878611e-02
1.2813900e+00 1.0740500e-01 -4.0024100e-02
1.2686844e+00 9.1102956e-02 -3.6616844e-02
1.2556211e+00 7.5553722e-02 -3.2656844e-02
1.2422000e+00 6.0757300e-02 -2.8144100e-02
1.2422000e+00 6.0757300e-02 -2.8144100e-02
1.2349589e+00 5.2024744e-02 -2.6647069e-02
1.2263589e+00 4.4115644e-02 -2.3772136e-02
1.2164000e+00 3.7030000e-02 -1.9519300e-02
1.2050822e+00 3.0767811e-02 -1.3888562e-02
1.1924056e+00 2.5329078e-02 -6.8799222e-03
1.1783700e+00 2.0713800e-02 1.5066200e-03
1.1783700e+00 2.0713800e-02 1.5066200e-03
1.1625300e+00 1.5128924e-02 8.9318556e-03
1.1462267e+00 1.0190834e-02 1.5677282e-02
1.1294600e+00 5.8995300e-03 2.1742900e-02
1.1122300e+00 2.2550111e-03 2.7128709e-02
1.0945367e+00 -7.4272222e-04 3.1834709e-02
1.0763800e+00 -3.0936700e-03 3.5860900e-02
1.0763800e+00 -3.0936700e-03 3.5860900e-02
1.0514302e+00 -5.4988278e-03 3.9153244e-02
1.0259576e+00 -7.4546444e-03 4.1198744e-02
9.9996200e-01 -8.9611200e-03 4.1997400e-02
9.7344356e-01 -1.0018254e-02 4.1549211e-02
9.4640222e-01 -1.0626048e-02 3.9854178e-02
9.1883800e-01 -1.0784500e-02 3.6912300e-02
9.1883800e-01 -1.0784500e-02 3.6912300e-02
8.9573644e-01 -9.1799544e-03 3.4606522e-02
8.7299178e-01 -7.0655078e-03 3.2012322e-02
8.5060400e-01 -4.4411600e-03 2.9129700e-02
8.2857311e-01 -1.3069111e-03 2.5958656e-02
8.0689911e-01 2.3372389e-03 2.2499189e-02
7.8558200e-01 6.4912900e-03 1.8751300e-02
7.8558200e-01 6.4912900e-03 1.8751300e-02
7.6395422e-01 9.7927389e-03 1.4044018e-02
7.4210156e-01 1.3412909e-02 9.3265611e-03
7.2002400e-01 1.7351800e-02 4.5989300e-03
6.9772156e-01 2.1609412e-02 -1.3887556e-04
6.7519422e-01 2.6185746e-02 -4.8868556e-03
6.5244200e-01 3.1080800e-02 -9.6450100e-03
6.5244200e-01 3.1080800e-02 -9.6450100e-03
6.3164289e-01 3.5050333e-02 -1.4103328e-02
6.0928589e-01 3.9686133e-02 -1.7877491e-02
5.8537100e-01 4.4988200e-02 -2.0967500e-02
5.5989822e-01 5.0956533e-02 -2.3373354e-02
5.3286756e-01 5.7591133e-02 -2.5095054e-02
5.0427900e-01 6.4892000e-02 -2.6132600e-02
5.0427900e-01 6.4892000e-02 -2.6132600e-02
4.7107867e-01 7.4325367e-02 -2.5329067e-02
4.3893200e-01 8.1900633e-02 -2.4137333e-02
4.0783900e-01 8.7617800e-02 -2.2557400e-02
3.7779967e-01 9.1476867e-02 -2.0589267e-02
3.4881400e-01 9.3477833e-02 -1.8232933e-02
3.2088200e-01 9.3620700e-02 -1.5488400e-02
3.2088200e-01 9.3620700e-02 -1.5488400e-02
2.9095867e-01 9.1572256e-02 -1.2573864e-02
2.6289733e-01 8.8442822e-02 -9.7530107e-03
2.3669800e-01 8.4232400e-02 -7.0258400e-03
2.1236067e-01 7.8940989e-02 -4.3923520e-03
1.8988533e-01 7.2568589e-02 -1.8525467e-03
1.6927200e-01 6.5115200e-02 5.9357600e-04
1.6927200e-01 6.5115200e-02 5.9357600e-04
1.4929463e-01 5.7864811e-02 4.3536422e-03
1.3027130e-01 5.0638844e-02 7.8454836e-03
1.1220200e-01 4.3437300e-02 1.1069100e-02
9.5086733e-02 3.6260178e-02 1.4024492e-02
7.8925500e-02 2.9107478e-02 1.6711658e-02
6.3718300e-02 2.1979200e-02 1.9130600e-02
6.3718300e-02 2.1979200e-02 1.9130600e-02
5.5546978e-02 1.8805038e-02 1.6074963e-02
4.7085944e-02 1.4904104e-02 1.3024576e-02
3.8335200e-02 1.0276400e-02 9.9794400e-03
2.9294744e-02 4.9219244e-03 6.9395542e-03
1.9964578e-02 -1.1593222e-03 3.9049189e-03
1.0344700e-02 -7.9673400e-03 8.7553400e-04
4.1698600e+00 2.8924200e-01 9.2709400e-02
4.1626089e+00 2.6640511e-01 9.9768444e-02
4.1547589e+00 2.4434711e-01 1.0665631e-01
4.1463100e+00 2.2306800e-01 1.1337300e-01
4.1372622e+00 2.0256778e-01 1.1991851e-01
4.1276156e+00 1.8284644e-01 1.2629284e-01
4.1173700e+00 1.6390400e-01 1.3249600e-01
4.1173700e+00 1.6390400e-01 1.3249600e-01
4.1082944e+00 1.5115111e-01 1.3671867e-01
4.0989711e+00 1.4181544e-01 1.4061533e-01
4.0894000e+00 1.3589700e-01 1.4418600e-01
4.0795811e+00 1.3339578e-01 1.4743067e-01
4.0695144e+00 1.3431178e-01 1.5034933e-01
4.0592000e+00 1.3864500e-01 1.5294200e-01
4.0592000e+00 1.3864500e-01 1.5294200e-01
4.0488478e+00 1.4248011e-01 1.5501089e-01
4.0373278e+00 1.4677344e-01 1.5723589e-01
4.0246400e+00 1.5152500e-01 1.5961700e-01
4.0107844e+00 1.5673478e-01 1.6215422e-01
3.9957611e+00 1.6240278e-01 1.6484756e-01
3.9795700e+00 1.6852900e-01 1.6769700e-01
3.9795700e+00 1.6852900e-01 1.6769700e-01
3.9578167e+00 1.7548889e-01 1.7272833e-01
3.9370900e+00 1.7906556e-01 1.7759767e-01
3.9173900e+00 1.7925900e-01 1.8230500e-01
3.8987167e+00 1.7606922e-01 1.8685033e-01
3.8810700e+00 1.6949622e-01 1.9123367e-01
3.8644500e+00 1.5954000e-01 1.9545500e-01
3.8644500e+00 1.5954000e-01 1.9545500e-01
3.8513511e+00 1.4804411e-01 1.9670044e-01
3.8389511e+00 1.3613511e-01 1.9639678e-01
3.8272500e+00 1.2381300e-01 1.9454400e-01
3.8162478e+00 1.1107778e-01 1.9114211e-01
3.8059444e+00 9.7929444e-02 1.8619111e-01
3.7963400e+00 8.4368000e-02 1.7969100e-01
3.7963400e+00 8.4368000e-02 1.7969100e-01
3.7791844e+00 9.6883444e-02 1.8101489e-01
3.7605744e+00 1.0873078e-01 1.8142989e-01
3.7405100e+00 1.1991000e-01 1.8093600e-01
3.7189911e+00 1.3042111e-01 1.7953322e-01
3.6960178e+00 1.4026411e-01 1.7722156e-01
3.6715900e+00 1.4943900e-01 1.7400100e-01
3.6715900e+00 1.4943900e-01 1.7400100e-01
3.6480900e+00 1.5517311e-01 1.6691500e-01
3.6262633e+00 1.5813311e-01 1.5910433e-01
3.6061100e+00 1.5831900e-01 1.5056900e-01
3.5876300e+00 1.5573078e-01 1.4130900e-01
3.5708233e+00 1.5036844e-01 1.3132433e-01
3.5556900e+00 1.4223200e-01 1.2061500e-01
3.5556900e+00 1.4223200e-01 1.2061500e-01
3.5427656e+00 1.3125322e-01 1.1403148e-01
3.5286522e+00 1.1991122e-01 1.0688031e-01
3.5133500e+00 1.0820600e-01 9.9161500e-02
3.4968589e+00 9.6137556e-02 9.0875044e-02
3.4791789e+00 8.3705889e-02 8.2020944e-02
3.4603100e+00 7.0911000e-02 7.2599200e-02
3.4603100e+00 7.0911000e-02 7.2599200e-02
3.4368867e+00 5.8600322e-02 6.0381167e-02
3.4113467e+00 4.9416289e-02 4.9258367e-02
3.3836900e+00 4.3358900e-02 3.9230800e-02
3.3539167e+00 4.0428156e-02 3.0298467e-02
3.3220267e+00 4.0624056e-02 2.2461367e-02
3.2880200e+00 4.3946600e-02 1.5719500e-02
3.2880200e+00 4.3946600e-02 1.5719500e-02
3.2539533e+00 5.3804944e-02 1.2944813e-02
3.2230333e+00 6.3543911e-02 1.0838647e-02
3.1952600e+00 7.3163500e-02 9.4010000e-03
3.1706333e+00 8.2663711e-02 8.6318733e-03
3.1491533e+00 9.2044544e-02 8.5312667e-03
3.1308200e+00 1.0130600e-01 9.0991800e-03
3.1894800e+00 1.3464300e-01 -1.1275300e-02
3.1843200e+00 1.2538489e-01 -1.0316287e-02
3.1773133e+00 1.1760756e-01 -8.3825800e-03
3.1684600e+00 1.1131100e-01 -5.4741800e-03
3.1577600e+00 1.0649522e-01 -1.5910867e-03
3.1452133e+00 1.0316022e-01 3.2667000e-03
3.1308200e+00 1.0130600e-01 9.0991800e-03
3.9699400e+00 3.1531700e-01 9.2801600e-02
3.9575389e+00 3.0594044e-01 8.4423367e-02
3.9450956e+00 2.9636944e-01 7.5571133e-02
3.9326100e+00 2.8660400e-01 6.6244900e-02
3.9200822e+00 2.7664411e-01 5.6444667e-02
3.9075122e+00 2.6648978e-01 4.6170433e-02
3.8949000e+00 2.5614100e-01 3.5422200e-02
3.8949000e+00 2.5614100e-01 3.5422200e-02
3.8827878e+00 2.4342456e-01 2.4680300e-02
3.8709578e+00 2.3149589e-01 1.6696200e-02
3.8594100e+00 2.2035500e-01 1.1469900e-02
3.8481444e+00 2.1000189e-01 9.0014000e-03
3.8371611e+00 2.0043656e-01 9.2907000e-03
3.8264600e+00 1.9165900e-01 1.2337800e-02
3.8264600e+00 1.9165900e-01 1.2337800e-02
3.8097344e+00 1.8780800e-01 2.5644000e-02
3.7918011e+00 1.8517433e-01 3.9132833e-02
3.7726600e+00 1.8375800e-01 5.2804300e-02
3.7523111e+00 1.8355900e-01 6.6658400e-02
3.7307544e+00 1.8457733e-01 8.0695133e-02
3.7079900e+00 1.8681300e-01 9.4914500e-02
3.7079900e+00 1.8681300e-01 9.4914500e-02
3.6861200e+00 1.9178344e-01 1.1061139e-01
3.6632867e+00 1.9560011e-01 1.2652456e-01
3.6394900e+00 1.9826300e-01 1.4265400e-01
3.6147300e+00 1.9977211e-01 1.5899972e-01
3.5890067e+00 2.0012744e-01 1.7556172e-01
3.5623200e+00 1.9932900e-01 1.9234000e-01
3.5623200e+00 1.9932900e-01 1.9234000e-01
3.5343144e+00 1.8550656e-01 1.8972474e-01
3.5041211e+00 1.7362689e-01 1.8085608e-01
3.4717400e+00 1.6369000e-01 1.6573400e-01
3.4371711e+00 1.5569589e-01 1.4435851e-01
3.4004144e+00 1.4964456e-01 1.1672961e-01
3.3614700e+00 1.4553600e-01 8.2847300e-02
3.3614700e+00 1.4553600e-01 8.2847300e-02
3.3262967e+00 1.4519856e-01 5.7590367e-02
3.2937267e+00 1.4426989e-01 3.6161367e-02
3.2637600e+00 1.4275000e-01 1.8560300e-02
3.2363967e+00 1.4063889e-01 4.7871667e-03
3.2116367e+00 1.3793656e-01 -5.1580333e-03
3.1894800e+00 1.3464300e-01 -1.1275300e-02
2.3300200e+00 2.3054800e-01 -2.2470000e-02
2.3538856e+00 2.1161978e-01 -1.8687944e-02
2.3820322e+00 1.9383978e-01 -1.6898444e-02
2.4144600e+00 1.7720800e-01 -1.7101500e-02
2.4511689e+00 1.6172444e-01 -1.9297111e-02
2.4921589e+00 1.4738911e-01 -2.3485278e-02
2.5374300e+00 1.3420200e-01 -2.9666000e-02
2.5374300e+00 1.3420200e-01 -2.9666000e-02
2.5817122e+00 1.3466078e-01 -3.0172211e-02
2.6246622e+00 1.3873944e-01 -2.9335011e-02
2.6662800e+00 1.4643800e-01 -2.7154400e-02
2.7065656e+00 1.5775644e-01 -2.3630378e-02
2.7455189e+00 1.7269478e-01 -1.8762944e-02
2.7831400e+00 1.9125300e-01 -1.2552100e-02
2.7831400e+00 1.9125300e-01 -1.2552100e-02
2.8179778e+00 2.0952322e-01 -9.0453733e-03
2.8536544e+00 2.2396522e-01 -5.8461667e-03
2.8901700e+00 2.3457900e-01 -2.9544800e-03
2.9275244e+00 2.4136456e-01 -3.7031333e-04
2.9657178e+00 2.4432189e-01 1.9063333e-03
3.0047500e+00 2.4345100e-01 3.8754600e-03
3.0047500e+00 2.4345100e-01 3.8754600e-03
3.0440689e+00 2.2871022e-01 3.1660433e-03
3.0799756e+00 2.1261189e-01 1.7303427e-03
3.1124700e+00 1.9515600e-01 -4.3164200e-04
3.1415522e+00 1.7634256e-01 -3.3199107e-03
3.1672222e+00 1.5617156e-01 -6.9344633e-03
3.1894800e+00 1.3464300e-01 -1.1275300e-02
1.9230000e+00 6.9309200e-01 -1.7044100e-02