# vtk DataFile Version 2.0
test
ASCII
DATASET POLYDATA
POINTS 4361 float
6.5773822e+00 7.5062485e+00 1.1856863e+01
6.6966178e+00 7.5530109e+00 1.1736124e+01
6.8168521e+00 7.5978624e+00 1.1615692e+01
6.9380850e+00 7.6408031e+00 1.1495568e+01
7.0603166e+00 7.6818328e+00 1.1375752e+01
7.1835469e+00 7.7209515e+00 1.1256243e+01
7.3077758e+00 7.7581594e+00 1.1137042e+01
7.3077758e+00 7.7581594e+00 1.1137042e+01
7.4345579e+00 7.8067056e+00 1.1021594e+01
7.5667281e+00 7.8532086e+00 1.0912788e+01
7.7042865e+00 7.8976685e+00 1.0810622e+01
7.8472330e+00 7.9400852e+00 1.0715099e+01
7.9955677e+00 7.9804588e+00 1.0626216e+01
8.1492906e+00 8.0187891e+00 1.0543975e+01
8.1492906e+00 8.0187891e+00 1.0543975e+01
8.3174647e+00 8.0482272e+00 1.0486887e+01
8.4874251e+00 8.0762885e+00 1.0447213e+01
8.6591720e+00 8.1029730e+00 1.0424954e+01
8.8327053e+00 8.1282809e+00 1.0420110e+01
9.0080250e+00 8.1522120e+00 1.0432680e+01
9.1851311e+00 8.1747664e+00 1.0462665e+01
9.1851311e+00 8.1747664e+00 1.0462665e+01
9.3599123e+00 8.1934635e+00 1.0489653e+01
9.5343233e+00 8.2106168e+00 1.0519684e+01
9.7083642e+00 8.2262262e+00 1.0552760e+01
9.8820349e+00 8.2402917e+00 1.0588879e+01
1.0055335e+01 8.2528133e+00 1.0628041e+01
1.0228266e+01 8.2637911e+00 1.0670248e+01
1.0228266e+01 8.2637911e+00 1.0670248e+01
1.0400749e+01 8.2728954e+00 1.0715319e+01
1.0574226e+01 8.2804434e+00 1.0755524e+01
1.0748698e+01 8.2864351e+00 1.0790863e+01
1.0924165e+01 8.2908704e+00 1.0821336e+01
1.1100625e+01 8.2937493e+00 1.0846942e+01
1.1278080e+01 8.2950719e+00 1.0867683e+01
1.1278080e+01 8.2950719e+00 1.0867683e+01
1.1458069e+01 8.2936489e+00 1.0880159e+01
1.1635966e+01 8.2906418e+00 1.0877774e+01
1.1811769e+01 8.2860507e+00 1.0860525e+01
1.1985480e+01 8.2798756e+00 1.0828414e+01
1.2157099e+01 8.2721164e+00 1.0781441e+01
1.2326625e+01 8.2627732e+00 1.0719604e+01
1.2326625e+01 8.2627732e+00 1.0719604e+01
1.2488173e+01 8.2520225e+00 1.0639245e+01
1.2641221e+01 8.2440760e+00 1.0547788e+01
1.2785767e+01 8.2389337e+00 1.0445233e+01
1.2921812e+01 8.2365958e+00 1.0331580e+01
1.3049356e+01 8.2370621e+00 1.0206828e+01
1.3168398e+01 8.2403326e+00 1.0070978e+01
1.3168398e+01 8.2403326e+00 1.0070978e+01
1.3272959e+01 8.2724805e+00 9.9287702e+00
1.3377081e+01 8.3002706e+00 9.7853189e+00
1.3480764e+01 8.3237028e+00 9.6406242e+00
1.3584007e+01 8.3427772e+00 9.4946862e+00
1.3686811e+01 8.3574937e+00 9.3475048e+00
1.3789176e+01 8.3678524e+00 9.1990801e+00
1.3789176e+01 8.3678524e+00 9.1990801e+00
1.3676824e+01 8.2897105e+00 9.0695779e+00
1.3564078e+01 8.2071820e+00 8.9441097e+00
1.3450938e+01 8.1202668e+00 8.8226756e+00
1.3337404e+01 8.0289650e+00 8.7052756e+00
1.3223476e+01 7.9332766e+00 8.5919096e+00
1.3109153e+01 7.8332016e+00 8.4825776e+00
1.3109153e+01 7.8332016e+00 8.4825776e+00
1.2993532e+01 7.7561378e+00 8.3574211e+00
1.2881190e+01 7.6772515e+00 8.2308611e+00
1.2772129e+01 7.5965427e+00 8.1028978e+00
1.2666346e+01 7.5140113e+00 7.9735312e+00
1.2563843e+01 7.4296574e+00 7.8427611e+00
1.2464620e+01 7.3434810e+00 7.7105878e+00
1.2464620e+01 7.3434810e+00 7.7105878e+00
1.2370065e+01 7.2623268e+00 7.5711837e+00
1.2282525e+01 7.1787706e+00 7.4296856e+00
1.2201999e+01 7.0928125e+00 7.2860933e+00
1.2128487e+01 7.0044523e+00 7.1404068e+00
1.2061990e+01 6.9136902e+00 6.9926263e+00
1.2002507e+01 6.8205261e+00 6.8427516e+00
1.2002507e+01 6.8205261e+00 6.8427516e+00
1.1958295e+01 6.7247700e+00 6.6908062e+00
1.1921702e+01 6.6274618e+00 6.5384294e+00
1.1892729e+01 6.5286015e+00 6.3856211e+00
1.1871374e+01 6.4281891e+00 6.2323814e+00
1.1857639e+01 6.3262246e+00 6.0787103e+00
1.1851523e+01 6.2227080e+00 5.9246077e+00
1.1851523e+01 6.2227080e+00 5.9246077e+00
1.1854417e+01 6.1175240e+00 5.7720187e+00
1.1864117e+01 6.0103308e+00 5.6220332e+00
1.1880621e+01 5.9011285e+00 5.4746512e+00
1.1903931e+01 5.7899169e+00 5.3298728e+00
1.1934046e+01 5.6766961e+00 5.1876979e+00
1.1970966e+01 5.5614662e+00 5.0481266e+00
1.1970966e+01 5.5614662e+00 5.0481266e+00
1.2009609e+01 5.4448611e+00 4.9108729e+00
1.2049873e+01 5.3276650e+00 4.7746399e+00
1.2091757e+01 5.2098778e+00 4.6394276e+00
1.2135262e+01 5.0914994e+00 4.5052361e+00
1.2180387e+01 4.9725300e+00 4.3720652e+00
1.2227133e+01 4.8529695e+00 4.2399150e+00
1.2227133e+01 4.8529695e+00 4.2399150e+00
1.2272591e+01 4.7324708e+00 4.1085815e+00
1.2314505e+01 4.6091413e+00 3.9785349e+00
1.2352874e+01 4.4829811e+00 3.8497750e+00
1.2387700e+01 4.3539901e+00 3.7223020e+00
1.2418982e+01 4.2221683e+00 3.5961159e+00
1.2446720e+01 4.0875157e+00 3.4712166e+00
1.2446720e+01 4.0875157e+00 3.4712166e+00
1.2470270e+01 3.9501010e+00 3.3481980e+00
1.2487268e+01 3.8120302e+00 3.2255307e+00
1.2497715e+01 3.6733034e+00 3.1032148e+00
1.2501609e+01 3.5339205e+00 2.9812502e+00
1.2498951e+01 3.3938816e+00 2.8596369e+00
1.2489741e+01 3.2531865e+00 2.7383750e+00
1.2489741e+01 3.2531865e+00 2.7383750e+00
1.2472258e+01 3.1105510e+00 2.6191827e+00
1.2446936e+01 2.9679084e+00 2.5022428e+00
1.2413775e+01 2.8252588e+00 2.3875554e+00
1.2372775e+01 2.6826020e+00 2.2751205e+00
1.2323936e+01 2.5399382e+00 2.1649380e+00
1.2267259e+01 2.3972673e+00 2.0570080e+00
1.2267259e+01 2.3972673e+00 2.0570080e+00
1.2203828e+01 2.2586290e+00 1.9480746e+00
1.2135091e+01 2.1210511e+00 1.8413435e+00
1.2061047e+01 1.9845337e+00 1.7368147e+00
1.1981696e+01 1.8490767e+00 1.6344883e+00
1.1897038e+01 1.7146802e+00 1.5343642e+00
1.1807074e+01 1.5813442e+00 1.4364424e+00
1.1807074e+01 1.5813442e+00 1.4364424e+00
1.1707551e+01 1.4504442e+00 1.3436011e+00
1.1605506e+01 1.3204080e+00 1.2527074e+00
1.1500938e+01 1.1912355e+00 1.1637612e+00
1.1393849e+01 1.0629269e+00 1.0767625e+00
1.1284237e+01 9.3548197e-01 9.9171127e-01
1.1172103e+01 8.0890088e-01 9.0860757e-01
1.1172103e+01 8.0890088e-01 9.0860757e-01
1.1061443e+01 6.7875073e-01 8.2540483e-01
1.0950483e+01 5.4900051e-01 7.4283087e-01
1.0839222e+01 4.1965020e-01 6.6088569e-01
1.0727660e+01 2.9069982e-01 5.7956929e-01
1.0615798e+01 1.6214935e-01 4.9888167e-01
1.0503635e+01 3.3998800e-02 4.1882283e-01
4.1990000e+00 6.5276821e+00 1.1749975e+01
4.1514042e+00 6.4759020e+00 1.1572077e+01
4.1023741e+00 6.4178878e+00 1.1396973e+01
4.0519098e+00 6.3536395e+00 1.1224663e+01
4.0000112e+00 6.2831572e+00 1.1055146e+01
3.9466783e+00 6.2064408e+00 1.0888423e+01
3.8919112e+00 6.1234903e+00 1.0724495e+01
3.8919112e+00 6.1234903e+00 1.0724495e+01
3.8507774e+00 6.0603797e+00 1.0548563e+01
3.8152618e+00 5.9951073e+00 1.0372692e+01
3.7853646e+00 5.9276731e+00 1.0196883e+01
3.7610856e+00 5.8580771e+00 1.0021134e+01
3.7424250e+00 5.7863194e+00 9.8454477e+00
3.7293826e+00 5.7123999e+00 9.6698222e+00
3.7293826e+00 5.7123999e+00 9.6698222e+00
3.7244867e+00 5.6340352e+00 9.4950308e+00
3.7268584e+00 5.5521719e+00 9.3229547e+00
3.7364976e+00 5.4668100e+00 9.1535940e+00
3.7534043e+00 5.3779494e+00 8.9869485e+00
3.7775785e+00 5.2855903e+00 8.8230184e+00
3.8090202e+00 5.1897325e+00 8.6618035e+00
3.8090202e+00 5.1897325e+00 8.6618035e+00
3.8608440e+00 5.0858686e+00 8.5086864e+00
3.9255444e+00 4.9793122e+00 8.3664147e+00
4.0031216e+00 4.8700633e+00 8.2349882e+00
4.0935755e+00 4.7581219e+00 8.1144070e+00
4.1969060e+00 4.6434881e+00 8.0046710e+00
4.3131133e+00 4.5261617e+00 7.9057804e+00
4.3131133e+00 4.5261617e+00 7.9057804e+00
4.4264143e+00 4.4102868e+00 7.8078185e+00
4.5396636e+00 4.2938773e+00 7.7106022e+00
4.6528612e+00 4.1769334e+00 7.6141315e+00
4.7660070e+00 4.0594549e+00 7.5184064e+00
4.8791011e+00 3.9414420e+00 7.4234269e+00
4.9921435e+00 3.8228946e+00 7.3291930e+00
4.9921435e+00 3.8228946e+00 7.3291930e+00
5.1063003e+00 3.7011558e+00 7.2388607e+00
5.2153936e+00 3.5768062e+00 7.1465259e+00
5.3194232e+00 3.4498457e+00 7.0521886e+00
5.4183894e+00 3.3202742e+00 6.9558488e+00
5.5122919e+00 3.1880919e+00 6.8575064e+00
5.6011309e+00 3.0532986e+00 6.7571616e+00
5.6011309e+00 3.0532986e+00 6.7571616e+00
5.6808200e+00 2.9166565e+00 6.6503951e+00
5.7493323e+00 2.7797950e+00 6.5384360e+00
5.8066678e+00 2.6427140e+00 6.4212846e+00
5.8528264e+00 2.5054136e+00 6.2989407e+00
5.8878082e+00 2.3678938e+00 6.1714043e+00
5.9116132e+00 2.2301545e+00 6.0386755e+00
5.9116132e+00 2.2301545e+00 6.0386755e+00
5.9184705e+00 2.0948093e+00 5.9015022e+00
5.9151910e+00 1.9610710e+00 5.7640575e+00
5.9017748e+00 1.8289396e+00 5.6263416e+00
5.8782218e+00 1.6984152e+00 5.4883542e+00
5.8445321e+00 1.5694977e+00 5.3500955e+00
5.8007056e+00 1.4421871e+00 5.2115655e+00
5.8007056e+00 1.4421871e+00 5.2115655e+00
5.7516561e+00 1.3184272e+00 5.0713626e+00
5.6987572e+00 1.1965332e+00 4.9311395e+00
5.6420090e+00 1.0765051e+00 4.7908962e+00
5.5814115e+00 9.5834293e-01 4.6506328e+00
5.5169646e+00 8.4204665e-01 4.5103491e+00
5.4486684e+00 7.2761626e-01 4.3700453e+00
5.4486684e+00 7.2761626e-01 4.3700453e+00
5.3787697e+00 6.0843689e-01 4.2344144e+00
5.3079621e+00 4.8907653e-01 4.0993642e+00
5.2362454e+00 3.6953520e-01 3.9648948e+00
5.1636197e+00 2.4981289e-01 3.8310063e+00
5.0900850e+00 1.2990959e-01 3.6976985e+00
5.0156413e+00 9.8253200e-03 3.5649715e+00
2.9787300e+00 6.3388344e+00 1.3815454e+01
3.0613363e+00 6.4499864e+00 1.3676010e+01
3.1553500e+00 6.5585093e+00 1.3545876e+01
3.2607711e+00 6.6644032e+00 1.3425050e+01
3.3775994e+00 6.7676681e+00 1.3313534e+01
3.5058352e+00 6.8683040e+00 1.3211326e+01
3.6454782e+00 6.9663109e+00 1.3118427e+01
3.6454782e+00 6.9663109e+00 1.3118427e+01
3.8145908e+00 7.0446682e+00 1.3063581e+01
3.9889014e+00 7.1119504e+00 1.3020541e+01
4.1684100e+00 7.1681574e+00 1.2989307e+01
4.3531166e+00 7.2132892e+00 1.2969880e+01
4.5430213e+00 7.2473459e+00 1.2962259e+01
4.7381240e+00 7.2703274e+00 1.2966444e+01
4.7381240e+00 7.2703274e+00 1.2966444e+01
4.9337880e+00 7.2849062e+00 1.2971425e+01
5.1253982e+00 7.3007927e+00 1.2959300e+01
5.3129548e+00 7.3179869e+00 1.2930071e+01
5.4964577e+00 7.3364888e+00 1.2883737e+01
5.6759069e+00 7.3562985e+00 1.2820298e+01
5.8513025e+00 7.3774158e+00 1.2739754e+01
5.8513025e+00 7.3774158e+00 1.2739754e+01
6.0005404e+00 7.4072333e+00 1.2618060e+01
6.1384885e+00 7.4337127e+00 1.2486184e+01
6.2651467e+00 7.4568539e+00 1.2344127e+01
6.3805151e+00 7.4766569e+00 1.2191887e+01
[...]
POINT_DATA 4361
VECTORS U float
3.2804800e+00 1.0434000e+00 -1.0394600e-02
3.3038800e+00 1.0186663e+00 2.5602000e-03
3.3256433e+00 9.9169900e-01 1.3503333e-02
3.3457700e+00 9.6249800e-01 2.2434800e-02
3.3642600e+00 9.3106333e-01 2.9354600e-02
3.3811133e+00 8.9739500e-01 3.4262733e-02
3.3963300e+00 8.6149300e-01 3.7159200e-02
3.3963300e+00 8.6149300e-01 3.7159200e-02
3.4079222e+00 8.3573144e-01 3.9586368e-02
3.4177122e+00 8.0839444e-01 3.8529535e-02
3.4257000e+00 7.7948200e-01 3.3988700e-02
3.4318856e+00 7.4899411e-01 2.5963864e-02
3.4362689e+00 7.1693078e-01 1.4455027e-02
3.4388500e+00 6.8329200e-01 -5.3781200e-04
3.4388500e+00 6.8329200e-01 -5.3781200e-04
3.4473833e+00 6.4346144e-01 -8.9245511e-03
3.4549567e+00 6.0611711e-01 -1.2669414e-02
3.4615700e+00 5.7125900e-01 -1.1772400e-02
3.4672233e+00 5.3888711e-01 -6.2335098e-03
3.4719167e+00 5.0900144e-01 3.9472569e-03
3.4756500e+00 4.8160200e-01 1.8769900e-02
3.4756500e+00 4.8160200e-01 1.8769900e-02
3.4784822e+00 4.5495189e-01 2.2329367e-02
3.4808889e+00 4.3014989e-01 2.5257033e-02
3.4828700e+00 4.0719600e-01 2.7552900e-02
3.4844256e+00 3.8609022e-01 2.9216967e-02
3.4855556e+00 3.6683256e-01 3.0249233e-02
3.4862600e+00 3.4942300e-01 3.0649700e-02
3.4862600e+00 3.4942300e-01 3.0649700e-02
3.4860667e+00 3.3276300e-01 3.4075267e-02
3.4858667e+00 3.1730300e-01 3.6686733e-02
3.4856600e+00 3.0304300e-01 3.8484100e-02
3.4854467e+00 2.8998300e-01 3.9467367e-02
3.4852267e+00 2.7812300e-01 3.9636533e-02
3.4850000e+00 2.6746300e-01 3.8991600e-02
3.4850000e+00 2.6746300e-01 3.8991600e-02
3.4846011e+00 2.5691422e-01 3.8805711e-02
3.4836744e+00 2.4779522e-01 3.6951144e-02
3.4822200e+00 2.4010600e-01 3.3427900e-02
3.4802378e+00 2.3384656e-01 2.8235978e-02
3.4777278e+00 2.2901689e-01 2.1375378e-02
3.4746900e+00 2.2561700e-01 1.2846100e-02
3.4746900e+00 2.2561700e-01 1.2846100e-02
3.4711678e+00 2.2396478e-01 4.6987889e-03
3.4659744e+00 2.2674578e-01 -4.2928778e-03
3.4591100e+00 2.3396000e-01 -1.4128900e-02
3.4505744e+00 2.4560744e-01 -2.4809278e-02
3.4403678e+00 2.6168811e-01 -3.6334011e-02
3.4284900e+00 2.8220200e-01 -4.8703100e-02
3.4284900e+00 2.8220200e-01 -4.8703100e-02
3.4084400e+00 3.3202656e-01 -6.3254889e-02
3.3905900e+00 3.7779289e-01 -7.6732156e-02
3.3749400e+00 4.1950100e-01 -8.9134900e-02
3.3614900e+00 4.5715089e-01 -1.0046312e-01
3.3502400e+00 4.9074256e-01 -1.1071682e-01
3.3411900e+00 5.2027600e-01 -1.1989600e-01
3.3411900e+00 5.2027600e-01 -1.1989600e-01
3.3237000e+00 5.0578200e-01 -1.0515832e-01
3.3044733e+00 4.8741600e-01 -8.5777422e-02
3.2835100e+00 4.6517800e-01 -6.1753300e-02
3.2608100e+00 4.3906800e-01 -3.3085956e-02
3.2363733e+00 4.0908600e-01 2.2461111e-04
3.2102000e+00 3.7523200e-01 3.8178400e-02
3.2102000e+00 3.7523200e-01 3.8178400e-02
3.1802122e+00 3.6544022e-01 6.1643778e-02
3.1487356e+00 3.5538456e-01 8.5264644e-02
3.1157700e+00 3.4506500e-01 1.0904100e-01
3.0813156e+00 3.3448156e-01 1.3297284e-01
3.0453722e+00 3.2363422e-01 1.5706018e-01
3.0079400e+00 3.1252300e-01 1.8130300e-01
3.0079400e+00 3.1252300e-01 1.8130300e-01
2.9681022e+00 3.0871956e-01 2.0059644e-01
2.9259789e+00 3.0455422e-01 2.1854444e-01
2.8815700e+00 3.0002700e-01 2.3514700e-01
2.8348756e+00 2.9513789e-01 2.5040411e-01
2.7858956e+00 2.8988689e-01 2.6431578e-01
2.7346300e+00 2.8427400e-01 2.7688200e-01
2.7346300e+00 2.8427400e-01 2.7688200e-01
2.6862600e+00 2.7797956e-01 2.8663800e-01
2.6356300e+00 2.7111056e-01 2.9357567e-01
2.5827400e+00 2.6366700e-01 2.9769500e-01
2.5275900e+00 2.5564889e-01 2.9899600e-01
2.4701800e+00 2.4705622e-01 2.9747867e-01
2.4105100e+00 2.3788900e-01 2.9314300e-01
2.4105100e+00 2.3788900e-01 2.9314300e-01
2.3517067e+00 2.2715700e-01 2.8624356e-01
2.2943367e+00 2.1480900e-01 2.7877022e-01
2.2384000e+00 2.0084500e-01 2.7072300e-01
2.1838967e+00 1.8526500e-01 2.6210189e-01
2.1308267e+00 1.6806900e-01 2.5290689e-01
2.0791900e+00 1.4925700e-01 2.4313800e-01
2.0791900e+00 1.4925700e-01 2.4313800e-01
2.0264100e+00 1.2949240e-01 2.3287644e-01
1.9737367e+00 1.1014503e-01 2.2163978e-01
1.9211700e+00 9.1214900e-02 2.0942800e-01
1.8687100e+00 7.2702000e-02 1.9624111e-01
1.8163567e+00 5.4606333e-02 1.8207911e-01
1.7641100e+00 3.6927900e-02 1.6694200e-01
1.7641100e+00 3.6927900e-02 1.6694200e-01
1.7105789e+00 1.9757844e-02 1.5134928e-01
1.6550256e+00 1.8609111e-03 1.3630194e-01
1.5974500e+00 -1.6762900e-02 1.2180000e-01
1.5378522e+00 -3.6113589e-02 1.0784344e-01
1.4762322e+00 -5.6191156e-02 9.4432278e-02
1.4125900e+00 -7.6995600e-02 8.1566500e-02
1.4125900e+00 -7.6995600e-02 8.1566500e-02
1.3476344e+00 -9.7729000e-02 7.0528333e-02
1.2815078e+00 -1.1593213e-01 5.9870667e-02
1.2142100e+00 -1.3160500e-01 4.9593500e-02
1.1457411e+00 -1.4474760e-01 3.9696833e-02
1.0761011e+00 -1.5535993e-01 3.0180667e-02
1.0052900e+00 -1.6344200e-01 2.1045000e-02
1.0052900e+00 -1.6344200e-01 2.1045000e-02
9.3435922e-01 -1.6943067e-01 1.4418149e-02
8.6547756e-01 -1.7296233e-01 9.4036789e-03
7.9864500e-01 -1.7403700e-01 6.0015900e-03
7.3386156e-01 -1.7265467e-01 4.2118822e-03
6.7112722e-01 -1.6881533e-01 4.0345556e-03
6.1044200e-01 -1.6251900e-01 5.4696100e-03
6.1044200e-01 -1.6251900e-01 5.4696100e-03
5.5538544e-01 -1.5124794e-01 4.1318497e-03
5.0432611e-01 -1.3942494e-01 2.9006797e-03
4.5726400e-01 -1.2705000e-01 1.7761000e-03
4.1419911e-01 -1.1412311e-01 7.5811067e-04
3.7513144e-01 -1.0064428e-01 -1.5328833e-04
3.4006100e-01 -8.6613500e-02 -9.5809700e-04
3.4006100e-01 -8.6613500e-02 -9.5809700e-04
3.0250622e-01 -7.2137646e-02 7.7725722e-04
2.6719822e-01 -5.8158646e-02 2.7271229e-03
2.3413700e-01 -4.4676500e-02 4.8915000e-03
2.0332256e-01 -3.1691209e-02 7.2703886e-03
1.7475489e-01 -1.9202772e-02 9.8637886e-03
1.4843400e-01 -7.2111900e-03 1.2671700e-02
1.4843400e-01 -7.2111900e-03 1.2671700e-02
1.2610284e-01 1.3083333e-05 1.4173889e-02
1.0481344e-01 7.0949800e-03 1.5720022e-02
8.4565800e-02 1.4034500e-02 1.7310100e-02
6.5359911e-02 2.0831643e-02 1.8944122e-02
4.7195778e-02 2.7486410e-02 2.0622089e-02
3.0073400e-02 3.3998800e-02 2.2344000e-02
2.9808800e+00 1.3161700e+00 1.0542000e-01
2.9558711e+00 1.3006211e+00 1.1504289e-01
2.9271278e+00 1.2794244e+00 1.2754022e-01
2.8946500e+00 1.2525800e+00 1.4291200e-01
2.8584378e+00 1.2200878e+00 1.6115822e-01
2.8184911e+00 1.1819478e+00 1.8227889e-01
2.7748100e+00 1.1381600e+00 2.0627400e-01
2.7748100e+00 1.1381600e+00 2.0627400e-01
2.7402700e+00 1.1154166e+00 2.1886944e-01
2.7033867e+00 1.0923599e+00 2.3047111e-01
2.6641600e+00 1.0689900e+00 2.4107900e-01
2.6225900e+00 1.0453069e+00 2.5069311e-01
2.5786767e+00 1.0213106e+00 2.5931344e-01
2.5324200e+00 9.9700100e-01 2.6694000e-01
2.5324200e+00 9.9700100e-01 2.6694000e-01
2.4815644e+00 9.7104644e-01 2.7295278e-01
2.4263411e+00 9.4378611e-01 2.7563344e-01
2.3667500e+00 9.1522000e-01 2.7498200e-01
2.3027911e+00 8.8534811e-01 2.7099844e-01
2.2344644e+00 8.5417044e-01 2.6368278e-01
2.1617700e+00 8.2168700e-01 2.5303500e-01
2.1617700e+00 8.2168700e-01 2.5303500e-01
2.0985644e+00 7.8275467e-01 2.4050800e-01
2.0421244e+00 7.4242833e-01 2.3168067e-01
1.9924500e+00 7.0070800e-01 2.2655300e-01
1.9495411e+00 6.5759367e-01 2.2512500e-01
1.9133978e+00 6.1308533e-01 2.2739667e-01
1.8840200e+00 5.6718300e-01 2.3336800e-01
1.8840200e+00 5.6718300e-01 2.3336800e-01
1.8494089e+00 5.2372311e-01 2.3477478e-01
1.8136556e+00 4.8137644e-01 2.3377444e-01
1.7767600e+00 4.4014300e-01 2.3036700e-01
1.7387222e+00 4.0002278e-01 2.2455244e-01
1.6995422e+00 3.6101578e-01 2.1633078e-01
1.6592200e+00 3.2312200e-01 2.0570200e-01
1.6592200e+00 3.2312200e-01 2.0570200e-01
1.6205178e+00 2.8408373e-01 1.9789400e-01
1.5789644e+00 2.4532940e-01 1.8883767e-01
1.5345600e+00 2.0685900e-01 1.7853300e-01
1.4873044e+00 1.6867253e-01 1.6698000e-01
1.4371978e+00 1.3077000e-01 1.5417867e-01
1.3842400e+00 9.3151400e-02 1.4012900e-01
1.3842400e+00 9.3151400e-02 1.4012900e-01
1.3256823e+00 5.7644100e-02 1.2253647e-01
1.2633723e+00 2.5936240e-02 1.0408943e-01
1.1973100e+00 -1.9721800e-03 8.4787900e-02
1.1274953e+00 -2.6081160e-02 6.4631867e-02
1.0539283e+00 -4.6390700e-02 4.3621333e-02
9.7660900e-01 -6.2900800e-02 2.1756300e-02
9.7660900e-01 -6.2900800e-02 2.1756300e-02
8.9475956e-01 -7.2401856e-02 2.1647222e-03
8.1533489e-01 -7.8738756e-02 -1.3630911e-02
7.3833500e-01 -8.1911500e-02 -2.5630600e-02
6.6375989e-01 -8.1920089e-02 -3.3834344e-02
5.9160956e-01 -7.8764522e-02 -3.8242144e-02
5.2188400e-01 -7.2444800e-02 -3.8854000e-02
5.2188400e-01 -7.2444800e-02 -3.8854000e-02
4.6002911e-01 -6.3964311e-02 -3.9435400e-02
4.0244844e-01 -5.4810844e-02 -3.9328100e-02
3.4914200e-01 -4.4984400e-02 -3.8532100e-02
3.0010978e-01 -3.4484978e-02 -3.7047400e-02
2.5535178e-01 -2.3312578e-02 -3.4874000e-02
2.1486800e-01 -1.1467200e-02 -3.2011900e-02
2.1486800e-01 -1.1467200e-02 -3.2011900e-02
1.7719150e-01 -5.9092133e-03 -2.4904061e-02
1.4089716e-01 -1.1549200e-03 -1.7276831e-02
1.0598500e-01 2.7956800e-03 -9.1302100e-03
7.2455009e-02 5.9425867e-03 -4.6419778e-04
4.0307189e-02 8.2858000e-03 8.7212056e-03
9.5415400e-03 9.8253200e-03 1.8426000e-02
2.9787300e+00 1.3691300e+00 -1.0432900e-01
3.0106389e+00 1.3772078e+00 -8.4385517e-02
3.0405922e+00 1.3812211e+00 -6.5276350e-02
3.0685900e+00 1.3811700e+00 -4.7001500e-02
3.0946322e+00 1.3770544e+00 -2.9560967e-02
3.1187189e+00 1.3688744e+00 -1.2954750e-02
3.1408500e+00 1.3566300e+00 2.8171500e-03
3.1408500e+00 1.3566300e+00 2.8171500e-03
3.1581689e+00 1.3305233e+00 1.2031769e-02
3.1735989e+00 1.3021300e+00 1.6973386e-02
3.1871400e+00 1.2714500e+00 1.7642000e-02
3.1987922e+00 1.2384833e+00 1.4037612e-02
3.2085556e+00 1.2032300e+00 6.1602222e-03
3.2164300e+00 1.1656900e+00 -5.9901700e-03
3.2164300e+00 1.1656900e+00 -5.9901700e-03
3.2233122e+00 1.1245067e+00 -1.6377906e-02
3.2287722e+00 1.0894933e+00 -2.5017516e-02
3.2328100e+00 1.0606500e+00 -3.1909000e-02
3.2354256e+00 1.0379767e+00 -3.7052359e-02
3.2366189e+00 1.0214733e+00 -4.0447592e-02
3.2363900e+00 1.0111400e+00 -4.2094700e-02
3.2363900e+00 1.0111400e+00 -4.2094700e-02
3.2397856e+00 1.0175056e+00 -3.7480544e-02
3.2447622e+00 1.0234756e+00 -3.2598711e-02
3.2513200e+00 1.0290500e+00 -2.7449200e-02
3.2594589e+00 1.0342289e+00 -2.2032011e-02
3.2691789e+00 1.0390122e+00 -1.6347144e-02
3.2804800e+00 1.0434000e+00 -1.0394600e-02
2.9268800e+00 1.3447300e+00 5.3240800e-03
2.9397800e+00 1.3469144e+00 3.2126544e-02
2.9511200e+00 1.3463211e+00 5.4881084e-02
2.9609000e+00 1.3429500e+00 7.3587700e-02
2.9691200e+00 1.3368011e+00 8.8246391e-02
2.9757800e+00 1.3278744e+00 9.8857158e-02
2.9808800e+00 1.3161700e+00 1.0542000e-01
3.3411900e+00 5.2027600e-01 -1.1989600e-01
3.2976044e+00 4.6533422e-01 -1.1516331e-01
3.2517411e+00 4.1193322e-01 -1.0812534e-01
3.2036000e+00 3.6007300e-01 -9.8782100e-02
3.1531811e+00 3.0975356e-01 -8.7133578e-02
3.1004844e+00 2.6097489e-01 -7.3179778e-02
3.0455100e+00 2.1373700e-01 -5.6920700e-02
3.0455100e+00 2.1373700e-01 -5.6920700e-02
3.0126889e+00 1.8212123e-01 -4.6528511e-02
2.9776256e+00 1.5402223e-01 -3.3758744e-02
2.9403200e+00 1.2944000e-01 -1.8611400e-02
2.9007722e+00 1.0837453e-01 -1.0864778e-03
2.8589822e+00 9.0825833e-02 1.8816022e-02
2.8149500e+00 7.6793900e-02 4.1096100e-02
2.8149500e+00 7.6793900e-02 4.1096100e-02
2.7642089e+00 6.1793072e-02 6.1491222e-02
2.7128989e+00 4.8286806e-02 7.9176156e-02
2.6610200e+00 3.6275100e-02 9.4150900e-02
2.6085722e+00 2.5757956e-02 1.0641546e-01
2.5555556e+00 1.6735372e-02 1.1596982e-01
2.5019700e+00 9.2073500e-03 1.2281400e-01
2.5019700e+00 9.2073500e-03 1.2281400e-01
2.4410833e+00 2.8020778e-03 1.2458921e-01
2.3803200e+00 -2.5876156e-03 1.2349888e-01
2.3196800e+00 -6.9617300e-03 1.1954300e-01
2.2591633e+00 -1.0320266e-02 1.1272158e-01
2.1987700e+00 -1.2663222e-02 1.0303461e-01
2.1385000e+00 -1.3990600e-02 9.0482100e-02
2.1385000e+00 -1.3990600e-02 9.0482100e-02
2.0861967e+00 -1.1761161e-02 8.0773556e-02
2.0353567e+00 -8.4625178e-03 7.0773989e-02
1.9859800e+00 -4.0946700e-03 6.0483400e-02
1.9380667e+00 1.3423822e-03 4.9901789e-02
1.8916167e+00 7.8486389e-03 3.9029156e-02
1.8466300e+00 1.5424100e-02 2.7865500e-02
1.8466300e+00 1.5424100e-02 2.7865500e-02
1.8013300e+00 2.1439511e-02 1.4896022e-02
1.7558100e+00 2.8044778e-02 1.8633889e-03
1.7100700e+00 3.5239900e-02 -1.1232400e-02
1.6641100e+00 4.3024878e-02 -2.4391344e-02
1.6179300e+00 5.1399711e-02 -3.7613444e-02
1.5715300e+00 6.0364400e-02 -5.0898700e-02
1.5715300e+00 6.0364400e-02 -5.0898700e-02
1.5276989e+00 6.7771722e-02 -6.3166889e-02
1.4815156e+00 7.6595556e-02 -7.4190956e-02
1.4329800e+00 8.6835900e-02 -8.3970900e-02
1.3820922e+00 9.8492756e-02 -9.2506722e-02
1.3288522e+00 1.1156612e-01 -9.9798422e-02
1.2732600e+00 1.2605600e-01 -1.0584600e-01
1.2732600e+00 1.2605600e-01 -1.0584600e-01
1.2117882e+00 1.4402122e-01 -1.1037400e-01
1.1499682e+00 1.5903389e-01 -1.1365733e-01
1.0878000e+00 1.7109400e-01 -1.1569600e-01
1.0252836e+00 1.8020156e-01 -1.1649000e-01
9.6241889e-01 1.8635656e-01 -1.1603933e-01
8.9920600e-01 1.8955900e-01 -1.1434400e-01
8.9920600e-01 1.8955900e-01 -1.1434400e-01
8.3026889e-01 1.8975444e-01 -1.1175004e-01
7.6397089e-01 1.8772278e-01 -1.0649961e-01
7.0031200e-01 1.8346400e-01 -9.8592700e-02
6.3929222e-01 1.7697811e-01 -8.8029311e-02
5.8091156e-01 1.6826511e-01 -7.4809444e-02
5.2517000e-01 1.5732500e-01 -5.8933100e-02
5.2517000e-01 1.5732500e-01 -5.8933100e-02
4.6425944e-01 1.4879553e-01 -3.0408833e-02
4.0592078e-01 1.3853053e-01 -3.9543667e-03
3.5015400e-01 1.2653000e-01 2.0430300e-02
2.9695911e-01 1.1279393e-01 4.2745167e-02
2.4633611e-01 9.7322333e-02 6.2990233e-02
1.9828500e-01 8.0115200e-02 8.1165500e-02
1.9828500e-01 8.0115200e-02 8.1165500e-02
1.7345009e-01 6.7700378e-02 6.9524178e-02
1.4682442e-01 5.3300844e-02 5.7023644e-02
1.1840800e-01 3.6916600e-02 4.3663900e-02
8.8200822e-02 1.8547644e-02 2.9444944e-02
5.6202889e-02 -1.8060222e-03 1.4366778e-02
2.2414200e-02 -2.4144400e-02 -1.5706000e-03
1.0128400e+01 6.2254700e-01 1.4323500e-01
1.0104216e+01 5.6745167e-01 1.5906411e-01
1.0078849e+01 5.1465300e-01 1.7447978e-01
1.0052300e+01 4.6415100e-01 1.8948200e-01
1.0024569e+01 4.1594567e-01 2.0407078e-01
9.9956556e+00 3.7003700e-01 2.1824611e-01
9.9655600e+00 3.2642500e-01 2.3200800e-01
9.9655600e+00 3.2642500e-01 2.3200800e-01
9.9378722e+00 2.9483167e-01 2.4320589e-01
9.9087356e+00 2.7134200e-01 2.5314856e-01
9.8781500e+00 2.5595600e-01 2.6183600e-01
9.8461156e+00 2.4867367e-01 2.6926822e-01
9.8126322e+00 2.4949500e-01 2.7544522e-01
9.7777000e+00 2.5842000e-01 2.8036700e-01
9.7777000e+00 2.5842000e-01 2.8036700e-01
9.7451033e+00 2.6534467e-01 2.8262633e-01
9.7103833e+00 2.7358667e-01 2.8491900e-01
9.6735400e+00 2.8314600e-01 2.8724500e-01
9.6345733e+00 2.9402267e-01 2.8960433e-01
9.5934833e+00 3.0621667e-01 2.9199700e-01
9.5502700e+00 3.1972800e-01 2.9442300e-01
9.5502700e+00 3.1972800e-01 2.9442300e-01
9.4920356e+00 3.3818922e-01 3.0148811e-01
9.4359556e+00 3.4762989e-01 3.0829511e-01
9.3820300e+00 3.4805000e-01 3.1484400e-01
9.3302589e+00 3.3944956e-01 3.2113478e-01
9.2806422e+00 3.2182856e-01 3.2716744e-01
9.2331800e+00 2.9518700e-01 3.3294200e-01
9.2331800e+00 2.9518700e-01 3.3294200e-01
9.1945133e+00 2.6331842e-01 3.2955878e-01
9.1578367e+00 2.3103042e-01 3.2315211e-01
9.1231500e+00 1.9832300e-01 3.1372200e-01
9.0904533e+00 1.6519616e-01 3.0126844e-01
9.0597467e+00 1.3164989e-01 2.8579144e-01
9.0310300e+00 9.7684200e-02 2.6729100e-01
9.0310300e+00 9.7684200e-02 2.6729100e-01
8.9968233e+00 1.3388500e-01 2.7088067e-01
8.9589433e+00 1.6819760e-01 2.7291767e-01
8.9173900e+00 2.0062200e-01 2.7340200e-01
8.8721633e+00 2.3115820e-01 2.7233367e-01
8.8232633e+00 2.5980620e-01 2.6971267e-01
8.7706900e+00 2.8656600e-01 2.6553900e-01
8.7706900e+00 2.8656600e-01 2.6553900e-01
8.7178378e+00 3.0575367e-01 2.5268622e-01
8.6670111e+00 3.1765633e-01 2.3712056e-01
8.6182100e+00 3.2227400e-01 2.1884200e-01
8.5714344e+00 3.1960667e-01 1.9785056e-01
8.5266844e+00 3.0965433e-01 1.7414622e-01
8.4839600e+00 2.9241700e-01 1.4772900e-01
8.4839600e+00 2.9241700e-01 1.4772900e-01
8.4434378e+00 2.6546756e-01 1.2845961e-01
8.4001844e+00 2.3833022e-01 1.0830254e-01
8.3542000e+00 2.1100500e-01 8.7257800e-02
8.3054844e+00 1.8349189e-01 6.5325378e-02
8.2540378e+00 1.5579089e-01 4.2505278e-02
8.1998600e+00 1.2790200e-01 1.8797500e-02
8.1998600e+00 1.2790200e-01 1.8797500e-02
8.1360944e+00 1.0448656e-01 -9.1523889e-03
8.0695911e+00 8.9136822e-02 -3.3851356e-02
8.0003500e+00 8.1852800e-02 -5.5299400e-02
7.9283711e+00 8.2634489e-02 -7.3496522e-02
7.8536544e+00 9.1481889e-02 -8.8442722e-02
7.7762000e+00 1.0839500e-01 -1.0013800e-01
7.7762000e+00 1.0839500e-01 -1.0013800e-01
7.7034378e+00 1.3766578e-01 -1.0259811e-01
7.6369611e+00 1.6638011e-01 -1.0437044e-01
7.5767700e+00 1.9453800e-01 -1.0545500e-01
7.5228644e+00 2.2213944e-01 -1.0585178e-01
7.4752444e+00 2.4918444e-01 -1.0556078e-01
7.4339100e+00 2.7567300e-01 -1.0458200e-01
7.5921900e+00 3.4313100e-01 -1.5379400e-01
7.5746211e+00 3.2544022e-01 -1.4812033e-01
7.5535278e+00 3.1032856e-01 -1.4143533e-01
7.5289100e+00 2.9779600e-01 -1.3373900e-01
7.5007678e+00 2.8784256e-01 -1.2503133e-01
7.4691011e+00 2.8046822e-01 -1.1531233e-01
7.4339100e+00 2.7567300e-01 -1.0458200e-01
9.6468900e+00 6.7225100e-01 1.6990000e-01
9.6146044e+00 6.5128567e-01 1.5032289e-01
9.5812711e+00 6.2958133e-01 1.2905222e-01
9.5468900e+00 6.0713800e-01 1.0608800e-01
9.5114611e+00 5.8395567e-01 8.1430222e-02
9.4749844e+00 5.6003433e-01 5.5078889e-02
9.4374600e+00 5.3537400e-01 2.7034000e-02
9.4374600e+00 5.3537400e-01 2.7034000e-02
9.3987778e+00 5.0245533e-01 -2.6287556e-03
9.3610778e+00 4.7109167e-01 -2.4655056e-02
9.3243600e+00 4.4128300e-01 -3.9044900e-02
9.2886244e+00 4.1302933e-01 -4.5798289e-02
9.2538711e+00 3.8633067e-01 -4.4915222e-02
9.2201000e+00 3.6118700e-01 -3.6395700e-02
9.2201000e+00 3.6118700e-01 -3.6395700e-02
9.1736922e+00 3.5689056e-01 -2.3093333e-03
9.1248589e+00 3.5539789e-01 3.1038267e-02
9.0736000e+00 3.5670900e-01 6.3647100e-02
9.0199156e+00 3.6082389e-01 9.5517167e-02
8.9638056e+00 3.6774256e-01 1.2664847e-01
8.9052700e+00 3.7746500e-01 1.5704100e-01
8.9052700e+00 3.7746500e-01 1.5704100e-01
8.8483444e+00 3.8572656e-01 1.8534700e-01
8.7884178e+00 3.9080089e-01 2.1193767e-01
8.7254900e+00 3.9268800e-01 2.3681300e-01
8.6595611e+00 3.9138789e-01 2.5997300e-01
8.5906311e+00 3.8690056e-01 2.8141767e-01
8.5187000e+00 3.7922600e-01 3.0114700e-01
8.5187000e+00 3.7922600e-01 3.0114700e-01
8.4377978e+00 3.5154611e-01 2.8028703e-01
8.3535178e+00 3.3179844e-01 2.4929670e-01
8.2658600e+00 3.1998300e-01 2.0817600e-01
8.1748244e+00 3.1609978e-01 1.5692493e-01
8.0804111e+00 3.2014878e-01 9.5543500e-02
7.9826200e+00 3.3213000e-01 2.4031700e-02
7.9826200e+00 3.3213000e-01 2.4031700e-02
7.8970233e+00 3.4367878e-01 -2.8024167e-02
7.8196367e+00 3.5134144e-01 -7.1112733e-02
7.7504600e+00 3.5511800e-01 -1.0523400e-01
7.6894933e+00 3.5500844e-01 -1.3038797e-01
7.6367367e+00 3.5101278e-01 -1.4657463e-01
7.5921900e+00 3.4313100e-01 -1.5379400e-01
5.6438400e+00 6.6882000e-01 -1.3953400e-01
5.6903622e+00 6.2703833e-01 -1.2754189e-01
5.7452089e+00 5.8597100e-01 -1.1910922e-01
5.8083800e+00 5.4561800e-01 -1.1423600e-01
5.8798756e+00 5.0597933e-01 -1.1292222e-01
5.9596956e+00 4.6705500e-01 -1.1516789e-01
6.0478400e+00 4.2884500e-01 -1.2097300e-01
6.0478400e+00 4.2884500e-01 -1.2097300e-01
6.1470567e+00 4.1513756e-01 -1.2068761e-01
6.2485300e+00 4.1054456e-01 -1.1849294e-01
6.3522600e+00 4.1506600e-01 -1.1438900e-01
6.4582467e+00 4.2870189e-01 -1.0837578e-01
6.5664900e+00 4.5145222e-01 -1.0045328e-01
6.6769900e+00 4.8331700e-01 -9.0621500e-02
6.6769900e+00 4.8331700e-01 -9.0621500e-02
6.7782033e+00 5.1779367e-01 -8.8083167e-02
6.8772567e+00 5.4361200e-01 -8.7314000e-02
6.9741500e+00 5.6077200e-01 -8.8314000e-02
7.0688833e+00 5.6927367e-01 -9.1083167e-02
7.1614567e+00 5.6911700e-01 -9.5621500e-02
7.2518700e+00 5.6030200e-01 -1.0192900e-01
7.2518700e+00 5.6030200e-01 -1.0192900e-01
7.3285122e+00 5.2766322e-01 -1.1168122e-01
7.3971856e+00 4.9360189e-01 -1.2099022e-01
7.4578900e+00 4.5811800e-01 -1.2985600e-01
7.5106256e+00 4.2121156e-01 -1.3827856e-01
7.5553922e+00 3.8288256e-01 -1.4625789e-01
7.5921900e+00 3.4313100e-01 -1.5379400e-01