# vtk DataFile Version 2.0
test
ASCII
DATASET POLYDATA
POINTS 4361 float
4.3439022e+00 6.8014885e+00 1.1859780e+01
4.4504734e+00 6.8652455e+00 1.1731688e+01
4.5592276e+00 6.9285063e+00 1.1605335e+01
4.6701650e+00 6.9912711e+00 1.1480723e+01
4.7832855e+00 7.0535396e+00 1.1357851e+01
4.8985891e+00 7.1153121e+00 1.1236719e+01
5.0160758e+00 7.1765884e+00 1.1117327e+01
5.0160758e+00 7.1765884e+00 1.1117327e+01
5.1379912e+00 7.2417522e+00 1.1001918e+01
5.2664614e+00 7.3056602e+00 1.0895524e+01
5.4014865e+00 7.3683125e+00 1.0798145e+01
5.5430663e+00 7.4297091e+00 1.0709781e+01
5.6912011e+00 7.4898500e+00 1.0630432e+01
5.8458906e+00 7.5487351e+00 1.0560097e+01
5.8458906e+00 7.5487351e+00 1.0560097e+01
6.0103725e+00 7.6033381e+00 1.0510209e+01
6.1770663e+00 7.6549673e+00 1.0473900e+01
6.3459720e+00 7.7036230e+00 1.0451170e+01
6.5170897e+00 7.7493051e+00 1.0442019e+01
6.6904194e+00 7.7920136e+00 1.0446446e+01
6.8659611e+00 7.8317484e+00 1.0464452e+01
6.8659611e+00 7.8317484e+00 1.0464452e+01
7.0398623e+00 7.8671025e+00 1.0487532e+01
7.2135333e+00 7.8998224e+00 1.0514414e+01
7.3869742e+00 7.9299082e+00 1.0545098e+01
7.5601849e+00 7.9573599e+00 1.0579584e+01
7.7331653e+00 7.9821774e+00 1.0617872e+01
7.9059156e+00 8.0043608e+00 1.0659962e+01
7.9059156e+00 8.0043608e+00 1.0659962e+01
8.0787665e+00 8.0243110e+00 1.0702656e+01
8.2525341e+00 8.0419019e+00 1.0741421e+01
8.4272182e+00 8.0571334e+00 1.0776256e+01
8.6028190e+00 8.0700055e+00 1.0807163e+01
8.7793364e+00 8.0805182e+00 1.0834140e+01
8.9567703e+00 8.0886715e+00 1.0857188e+01
8.9567703e+00 8.0886715e+00 1.0857188e+01
9.1369771e+00 8.0938857e+00 1.0871392e+01
9.3155368e+00 8.0966789e+00 1.0871835e+01
9.4924494e+00 8.0970508e+00 1.0858517e+01
9.6677149e+00 8.0950016e+00 1.0831438e+01
9.8413334e+00 8.0905313e+00 1.0790598e+01
1.0013305e+01 8.0836398e+00 1.0735997e+01
1.0013305e+01 8.0836398e+00 1.0735997e+01
1.0178046e+01 8.0741891e+00 1.0663054e+01
1.0334866e+01 8.0641281e+00 1.0578733e+01
1.0483767e+01 8.0534569e+00 1.0483037e+01
1.0624747e+01 8.0421756e+00 1.0375963e+01
1.0757808e+01 8.0302840e+00 1.0257514e+01
1.0882948e+01 8.0177822e+00 1.0127687e+01
1.0882948e+01 8.0177822e+00 1.0127687e+01
1.0997375e+01 8.0141442e+00 9.9902004e+00
1.1109800e+01 8.0091346e+00 9.8511999e+00
1.1220224e+01 8.0027533e+00 9.7106856e+00
1.1328646e+01 7.9950003e+00 9.5686576e+00
1.1435067e+01 7.9858757e+00 9.4251158e+00
1.1539486e+01 7.9753794e+00 9.2800602e+00
1.1539486e+01 7.9753794e+00 9.2800602e+00
1.1438666e+01 7.9071730e+00 9.1418648e+00
1.1338434e+01 7.8369702e+00 9.0043230e+00
1.1238788e+01 7.7647708e+00 8.8674349e+00
1.1139729e+01 7.6905750e+00 8.7312005e+00
1.1041258e+01 7.6143827e+00 8.5956196e+00
1.0943373e+01 7.5361939e+00 8.4606924e+00
1.0943373e+01 7.5361939e+00 8.4606924e+00
1.0846855e+01 7.4657435e+00 8.3203474e+00
1.0754550e+01 7.3942120e+00 8.1781014e+00
1.0666459e+01 7.3215994e+00 8.0339545e+00
1.0582580e+01 7.2479058e+00 7.8879067e+00
1.0502915e+01 7.1731310e+00 7.7399579e+00
1.0427463e+01 7.0972753e+00 7.5901082e+00
1.0427463e+01 7.0972753e+00 7.5901082e+00
1.0359053e+01 7.0203045e+00 7.4366928e+00
1.0299107e+01 6.9411945e+00 7.2819193e+00
1.0247628e+01 6.8599454e+00 7.1257877e+00
1.0204613e+01 6.7765570e+00 6.9682979e+00
1.0170064e+01 6.6910294e+00 6.8094501e+00
1.0143980e+01 6.6033627e+00 6.6492441e+00
1.0143980e+01 6.6033627e+00 6.6492441e+00
1.0129890e+01 6.5135268e+00 6.4887713e+00
1.0126264e+01 6.4223477e+00 6.3298362e+00
1.0133101e+01 6.3298255e+00 6.1724388e+00
1.0150402e+01 6.2359601e+00 6.0165791e+00
1.0178166e+01 6.1407515e+00 5.8622571e+00
1.0216394e+01 6.0441998e+00 5.7094728e+00
1.0216394e+01 6.0441998e+00 5.7094728e+00
1.0262938e+01 5.9470744e+00 5.5604035e+00
1.0315312e+01 5.8491050e+00 5.4144753e+00
1.0373514e+01 5.7502915e+00 5.2716883e+00
1.0437546e+01 5.6506339e+00 5.1320424e+00
1.0507406e+01 5.5501322e+00 4.9955377e+00
1.0583095e+01 5.4487865e+00 4.8621741e+00
1.0583095e+01 5.4487865e+00 4.8621741e+00
1.0661785e+01 5.3472853e+00 4.7312567e+00
1.0742053e+01 5.2447984e+00 4.6021771e+00
1.0823900e+01 5.1413258e+00 4.4749353e+00
1.0907325e+01 5.0368674e+00 4.3495313e+00
1.0992329e+01 4.9314234e+00 4.2259651e+00
1.1078912e+01 4.8249937e+00 4.1042366e+00
1.1078912e+01 4.8249937e+00 4.1042366e+00
1.1164900e+01 4.7164619e+00 3.9840834e+00
1.1248746e+01 4.6055568e+00 3.8646143e+00
1.1330449e+01 4.4922784e+00 3.7458293e+00
1.1410010e+01 4.3766268e+00 3.6277285e+00
1.1487429e+01 4.2586020e+00 3.5103118e+00
1.1562705e+01 4.1382039e+00 3.3935793e+00
1.1562705e+01 4.1382039e+00 3.3935793e+00
1.1633811e+01 4.0149410e+00 3.2766585e+00
1.1698294e+01 3.8888180e+00 3.1598412e+00
1.1756154e+01 3.7598348e+00 3.0431274e+00
1.1807390e+01 3.6279914e+00 2.9265171e+00
1.1852004e+01 3.4932878e+00 2.8100103e+00
1.1889994e+01 3.3557239e+00 2.6936070e+00
1.1889994e+01 3.3557239e+00 2.6936070e+00
1.1919883e+01 3.2142912e+00 2.5784071e+00
1.1939766e+01 3.0714363e+00 2.4645455e+00
1.1949644e+01 2.9271594e+00 2.3520223e+00
1.1949515e+01 2.7814603e+00 2.2408375e+00
1.1939381e+01 2.6343392e+00 2.1309910e+00
1.1919241e+01 2.4857960e+00 2.0224828e+00
1.1919241e+01 2.4857960e+00 2.0224828e+00
1.1887411e+01 2.3391374e+00 1.9145991e+00
1.1847668e+01 2.1935641e+00 1.8090552e+00
1.1800015e+01 2.0490762e+00 1.7058510e+00
1.1744449e+01 1.9056735e+00 1.6049867e+00
1.1680972e+01 1.7633563e+00 1.5064621e+00
1.1609583e+01 1.6221243e+00 1.4102773e+00
1.1609583e+01 1.6221243e+00 1.4102773e+00
1.1530789e+01 1.4831930e+00 1.3172528e+00
1.1448235e+01 1.3454275e+00 1.2262052e+00
1.1361920e+01 1.2088279e+00 1.1371343e+00
1.1271845e+01 1.0733941e+00 1.0500402e+00
1.1178009e+01 9.3912618e-01 9.6492289e-01
1.1080412e+01 8.0602407e-01 8.8178237e-01
1.1080412e+01 8.0602407e-01 8.8178237e-01
1.0982155e+01 6.7225510e-01 8.0027089e-01
1.0883115e+01 5.3875907e-01 7.1932531e-01
1.0783292e+01 4.0553598e-01 6.3894564e-01
1.0682685e+01 2.7258583e-01 5.5913187e-01
1.0581294e+01 1.3990863e-01 4.7988401e-01
1.0479121e+01 7.5043600e-03 4.0120205e-01
2.1455680e+00 5.6684681e+00 1.1708151e+01
2.1143093e+00 5.6277148e+00 1.1523326e+01
2.0840869e+00 5.5844486e+00 1.1338981e+01
2.0549008e+00 5.5386695e+00 1.1155117e+01
2.0267510e+00 5.4903776e+00 1.0971733e+01
1.9996375e+00 5.4395729e+00 1.0788830e+01
1.9735602e+00 5.3862553e+00 1.0606407e+01
1.9735602e+00 5.3862553e+00 1.0606407e+01
1.9546882e+00 5.3391229e+00 1.0420951e+01
1.9430006e+00 5.2898802e+00 1.0236121e+01
1.9384976e+00 5.2385271e+00 1.0051917e+01
1.9411791e+00 5.1850637e+00 9.8683395e+00
1.9510451e+00 5.1294899e+00 9.6853878e+00
1.9680956e+00 5.0718059e+00 9.5030622e+00
1.9680956e+00 5.0718059e+00 9.5030622e+00
1.9983141e+00 5.0094925e+00 9.3229972e+00
2.0390367e+00 4.9442169e+00 9.1478457e+00
2.0902636e+00 4.8759790e+00 8.9776077e+00
2.1519946e+00 4.8047787e+00 8.8122831e+00
2.2242298e+00 4.7306163e+00 8.6518719e+00
2.3069692e+00 4.6534915e+00 8.4963742e+00
2.3069692e+00 4.6534915e+00 8.4963742e+00
2.4028828e+00 4.5733100e+00 8.3502525e+00
2.5071595e+00 4.4917323e+00 8.2128380e+00
2.6197996e+00 4.4087583e+00 8.0841308e+00
2.7408029e+00 4.3243880e+00 7.9641308e+00
2.8701695e+00 4.2386215e+00 7.8528381e+00
3.0078993e+00 4.1514587e+00 7.7502526e+00
3.0078993e+00 4.1514587e+00 7.7502526e+00
3.1460107e+00 4.0642757e+00 7.6511280e+00
3.2850366e+00 3.9758692e+00 7.5546251e+00
3.4249772e+00 3.8862394e+00 7.4607439e+00
3.5658324e+00 3.7953861e+00 7.3694843e+00
3.7076021e+00 3.7033095e+00 7.2808464e+00
3.8502865e+00 3.6100096e+00 7.1948301e+00
3.8502865e+00 3.6100096e+00 7.1948301e+00
3.9938295e+00 3.5147400e+00 7.1119797e+00
4.1346018e+00 3.4168612e+00 7.0278224e+00
4.2726032e+00 3.3163734e+00 6.9423581e+00
4.4078339e+00 3.2132763e+00 6.8555868e+00
4.5402938e+00 3.1075702e+00 6.7675087e+00
4.6699829e+00 2.9992548e+00 6.6781235e+00
4.6699829e+00 2.9992548e+00 6.6781235e+00
4.7950354e+00 2.8877577e+00 6.5842410e+00
4.9112200e+00 2.7728271e+00 6.4855168e+00
5.0185368e+00 2.6544631e+00 6.3819508e+00
5.1169857e+00 2.5326656e+00 6.2735430e+00
5.2065669e+00 2.4074347e+00 6.1602935e+00
5.2872802e+00 2.2787703e+00 6.0422023e+00
5.2872802e+00 2.2787703e+00 6.0422023e+00
5.3516196e+00 2.1462743e+00 5.9173318e+00
5.4030788e+00 2.0137021e+00 5.7893550e+00
5.4416578e+00 1.8810535e+00 5.6582718e+00
5.4673566e+00 1.7483288e+00 5.5240823e+00
5.4801752e+00 1.6155277e+00 5.3867864e+00
5.4801136e+00 1.4826504e+00 5.2463842e+00
5.4801136e+00 1.4826504e+00 5.2463842e+00
5.4692062e+00 1.3535997e+00 5.1041202e+00
5.4515324e+00 1.2261202e+00 4.9617271e+00
5.4270920e+00 1.1002119e+00 4.8192051e+00
5.3958852e+00 9.7587482e-01 4.6765541e+00
5.3579119e+00 8.5310893e-01 4.5337742e+00
5.3131721e+00 7.3191423e-01 4.3908652e+00
5.3131721e+00 7.3191423e-01 4.3908652e+00
5.2660115e+00 6.0963093e-01 4.2504152e+00
5.2173576e+00 4.8759288e-01 4.1101739e+00
5.1672106e+00 3.6580007e-01 3.9701412e+00
5.1155703e+00 2.4425251e-01 3.8303171e+00
5.0624368e+00 1.2295020e-01 3.6907017e+00
5.0078101e+00 1.8931400e-03 3.5512950e+00
9.2716700e-01 5.4648114e+00 1.3902534e+01
9.9005045e-01 5.5702928e+00 1.3749374e+01
1.0656645e+00 5.6755814e+00 1.3606078e+01
1.1540091e+00 5.7806772e+00 1.3472647e+01
1.2550842e+00 5.8855802e+00 1.3349081e+01
1.3688900e+00 5.9902905e+00 1.3235379e+01
1.4954262e+00 6.0948079e+00 1.3131542e+01
1.4954262e+00 6.0948079e+00 1.3131542e+01
1.6549252e+00 6.1884506e+00 1.3070303e+01
1.8208898e+00 6.2722027e+00 1.3023577e+01
1.9933200e+00 6.3460644e+00 1.2991365e+01
2.1722157e+00 6.4100355e+00 1.2973665e+01
2.3575771e+00 6.4641162e+00 1.2970479e+01
2.5494040e+00 6.5083064e+00 1.2981806e+01
2.5494040e+00 6.5083064e+00 1.2981806e+01
2.7424424e+00 6.5465054e+00 1.2992818e+01
2.9319260e+00 6.5820536e+00 1.2985387e+01
3.1178548e+00 6.6149509e+00 1.2959514e+01
3.3002288e+00 6.6451974e+00 1.2915199e+01
3.4790480e+00 6.6727930e+00 1.2852441e+01
3.6543125e+00 6.6977378e+00 1.2771242e+01
3.6543125e+00 6.6977378e+00 1.2771242e+01
3.7994937e+00 6.7214233e+00 1.2644201e+01
3.9325752e+00 6.7425514e+00 1.2507212e+01
4.0535567e+00 6.7611219e+00 1.2360275e+01
4.1624384e+00 6.7771349e+00 1.2203391e+01
[...]
POINT_DATA 4361
VECTORS U float
1.0470000e+00 3.3864000e-01 -7.4770200e-03
1.0577356e+00 3.3090089e-01 -1.8756111e-03
1.0680189e+00 3.2234289e-01 3.1466556e-03
1.0778500e+00 3.1296600e-01 7.5897800e-03
1.0872289e+00 3.0277022e-01 1.1453762e-02
1.0961556e+00 2.9175556e-01 1.4738602e-02
1.1046300e+00 2.7992200e-01 1.7444300e-02
1.1046300e+00 2.7992200e-01 1.7444300e-02
1.1113556e+00 2.7077800e-01 1.9910389e-02
1.1174456e+00 2.6084600e-01 2.1266022e-02
1.1229000e+00 2.5012600e-01 2.1511200e-02
1.1277189e+00 2.3861800e-01 2.0645922e-02
1.1319022e+00 2.2632200e-01 1.8670189e-02
1.1354500e+00 2.1323800e-01 1.5584000e-02
1.1354500e+00 2.1323800e-01 1.5584000e-02
1.1402911e+00 1.9857233e-01 1.4397867e-02
1.1445978e+00 1.8479600e-01 1.4017733e-02
1.1483700e+00 1.7190900e-01 1.4443600e-02
1.1516078e+00 1.5991133e-01 1.5675467e-02
1.1543111e+00 1.4880300e-01 1.7713333e-02
1.1564800e+00 1.3858400e-01 2.0557200e-02
1.1564800e+00 1.3858400e-01 2.0557200e-02
1.1584322e+00 1.2859081e-01 2.0208978e-02
1.1600989e+00 1.1935548e-01 1.9987144e-02
1.1614800e+00 1.1087800e-01 1.9891700e-02
1.1625756e+00 1.0315838e-01 1.9922644e-02
1.1633856e+00 9.6196611e-02 2.0079978e-02
1.1639100e+00 8.9992700e-02 2.0363700e-02
1.1639100e+00 8.9992700e-02 2.0363700e-02
1.1640844e+00 8.4178600e-02 2.1412000e-02
1.1641744e+00 7.8761467e-02 2.2583200e-02
1.1641800e+00 7.3741300e-02 2.3877300e-02
1.1641011e+00 6.9118100e-02 2.5294300e-02
1.1639378e+00 6.4891867e-02 2.6834200e-02
1.1636900e+00 6.1062600e-02 2.8497000e-02
1.1636900e+00 6.1062600e-02 2.8497000e-02
1.1635089e+00 5.7151100e-02 3.0038233e-02
1.1632456e+00 5.3832267e-02 3.1012433e-02
1.1629000e+00 5.1106100e-02 3.1419600e-02
1.1624722e+00 4.8972600e-02 3.1259733e-02
1.1619622e+00 4.7431767e-02 3.0532833e-02
1.1613700e+00 4.6483600e-02 2.9238900e-02
1.1613700e+00 4.6483600e-02 2.9238900e-02
1.1610400e+00 4.6131378e-02 2.8506949e-02
1.1596200e+00 4.6797911e-02 2.6652249e-02
1.1571100e+00 4.8483200e-02 2.3674800e-02
1.1535100e+00 5.1187244e-02 1.9574602e-02
1.1488200e+00 5.4910044e-02 1.4351656e-02
1.1430400e+00 5.9651600e-02 8.0059600e-03
1.1430400e+00 5.9651600e-02 8.0059600e-03
1.1328556e+00 7.3690278e-02 -1.8246444e-03
1.1233089e+00 8.6656911e-02 -1.0851131e-02
1.1144000e+00 9.8551500e-02 -1.9073500e-02
1.1061289e+00 1.0937404e-01 -2.6491751e-02
1.0984956e+00 1.1912454e-01 -3.3105884e-02
1.0915000e+00 1.2780300e-01 -3.8915900e-02
1.0915000e+00 1.2780300e-01 -3.8915900e-02
1.0855422e+00 1.2324452e-01 -3.2871411e-02
1.0788289e+00 1.1720419e-01 -2.5564111e-02
1.0713600e+00 1.0968200e-01 -1.6994000e-02
1.0631356e+00 1.0067796e-01 -7.1610778e-03
1.0541556e+00 9.0192056e-02 3.9346556e-03
1.0444200e+00 7.8224300e-02 1.6293200e-02
1.0444200e+00 7.8224300e-02 1.6293200e-02
1.0335352e+00 7.5045856e-02 2.4570122e-02
1.0220952e+00 7.2344989e-02 3.2504956e-02
1.0101000e+00 7.0121700e-02 4.0097700e-02
9.9754956e-01 6.8375989e-02 4.7348356e-02
9.8444389e-01 6.7107856e-02 5.4256922e-02
9.7078300e-01 6.6317300e-02 6.0823400e-02
9.7078300e-01 6.6317300e-02 6.0823400e-02
9.5708967e-01 6.6697267e-02 6.6105500e-02
9.4256167e-01 6.6978133e-02 7.0778167e-02
9.2719900e-01 6.7159900e-02 7.4841400e-02
9.1100167e-01 6.7242567e-02 7.8295200e-02
8.9396967e-01 6.7226133e-02 8.1139567e-02
8.7610300e-01 6.7110600e-02 8.3374500e-02
8.7610300e-01 6.7110600e-02 8.3374500e-02
8.5785489e-01 6.6736356e-02 8.4603100e-02
8.4019122e-01 6.5996489e-02 8.4982500e-02
8.2311200e-01 6.4891000e-02 8.4512700e-02
8.0661722e-01 6.3419889e-02 8.3193700e-02
7.9070689e-01 6.1583156e-02 8.1025500e-02
7.7538100e-01 5.9380800e-02 7.8008100e-02
7.7538100e-01 5.9380800e-02 7.8008100e-02
7.6022789e-01 5.6707411e-02 7.4628389e-02
7.4553189e-01 5.3583144e-02 7.1212389e-02
7.3129300e-01 5.0008000e-02 6.7760100e-02
7.1751122e-01 4.5981978e-02 6.4271522e-02
7.0418656e-01 4.1505078e-02 6.0746656e-02
6.9131900e-01 3.6577300e-02 5.7185500e-02
6.9131900e-01 3.6577300e-02 5.7185500e-02
6.7858567e-01 3.1916542e-02 5.3260267e-02
6.6591700e-01 2.7278409e-02 4.9177000e-02
6.5331300e-01 2.2662900e-02 4.4935700e-02
6.4077367e-01 1.8070016e-02 4.0536367e-02
6.2829900e-01 1.3499756e-02 3.5979000e-02
6.1588900e-01 8.9521200e-03 3.1263600e-02
6.1588900e-01 8.9521200e-03 3.1263600e-02
6.0288833e-01 3.7489111e-03 2.6851148e-02
5.8926700e-01 -1.7236489e-03 2.2381381e-02
5.7502500e-01 -7.4655600e-03 1.7854300e-02
5.6016233e-01 -1.3476822e-02 1.3269904e-02
5.4467900e-01 -1.9757436e-02 8.6281944e-03
5.2857500e-01 -2.6307400e-02 3.9291700e-03
5.2857500e-01 -2.6307400e-02 3.9291700e-03
5.1117522e-01 -3.2888933e-02 -1.0111833e-03
4.9253322e-01 -3.9144333e-02 -5.8188733e-03
4.7264900e-01 -4.5073600e-02 -1.0493900e-02
4.5152256e-01 -5.0676733e-02 -1.5036263e-02
4.2915389e-01 -5.5953733e-02 -1.9445963e-02
4.0554300e-01 -6.0904600e-02 -2.3723000e-02
4.0554300e-01 -6.0904600e-02 -2.3723000e-02
3.8198456e-01 -6.5690522e-02 -2.6357433e-02
3.5830822e-01 -6.9434456e-02 -2.8293600e-02
3.3451400e-01 -7.2136400e-02 -2.9531500e-02
3.1060189e-01 -7.3796356e-02 -3.0071133e-02
2.8657189e-01 -7.4414322e-02 -2.9912500e-02
2.6242400e-01 -7.3990300e-02 -2.9055600e-02
2.6242400e-01 -7.3990300e-02 -2.9055600e-02
2.3896778e-01 -7.0739511e-02 -2.9343644e-02
2.1690378e-01 -6.6911911e-02 -2.9387644e-02
1.9623200e-01 -6.2507500e-02 -2.9187600e-02
1.7695244e-01 -5.7526278e-02 -2.8743511e-02
1.5906511e-01 -5.1968244e-02 -2.8055378e-02
1.4257000e-01 -4.5833400e-02 -2.7123200e-02
1.4257000e-01 -4.5833400e-02 -2.7123200e-02
1.2574448e-01 -3.9388833e-02 -2.5571056e-02
1.0992738e-01 -3.3139067e-02 -2.3775122e-02
9.5118700e-02 -2.7084100e-02 -2.1735400e-02
8.1318444e-02 -2.1223933e-02 -1.9451889e-02
6.8526611e-02 -1.5558567e-02 -1.6924589e-02
5.6743200e-02 -1.0088000e-02 -1.4153500e-02
5.6743200e-02 -1.0088000e-02 -1.4153500e-02
4.6814881e-02 -6.4825524e-03 -1.0960052e-02
3.7445648e-02 -3.1464599e-03 -7.7855356e-03
2.8635500e-02 -7.9722400e-05 -4.6299500e-03
2.0384438e-02 2.7176601e-03 -1.4932956e-03
1.2692461e-02 5.2456876e-03 1.6244278e-03
5.5595700e-03 7.5043600e-03 4.7232200e-03
9.2744800e-01 4.5695600e-01 6.3596300e-02
9.1877622e-01 4.5243389e-01 6.6291700e-02
9.0884056e-01 4.4598522e-01 6.9548300e-02
8.9764100e-01 4.3761000e-01 7.3366100e-02
8.8517756e-01 4.2730822e-01 7.7745100e-02
8.7145022e-01 4.1507989e-01 8.2685300e-02
8.5645900e-01 4.0092500e-01 8.8186700e-02
8.5645900e-01 4.0092500e-01 8.8186700e-02
8.4418078e-01 3.9415978e-01 9.1258000e-02
8.3112544e-01 3.8713278e-01 9.3900333e-02
8.1729300e-01 3.7984400e-01 9.6113700e-02
8.0268344e-01 3.7229344e-01 9.7898100e-02
7.8729678e-01 3.6448111e-01 9.9253533e-02
7.7113300e-01 3.5640700e-01 1.0018000e-01
7.7113300e-01 3.5640700e-01 1.0018000e-01
7.5539178e-01 3.4650378e-01 1.0091920e-01
7.3851944e-01 3.3583111e-01 1.0052443e-01
7.2051600e-01 3.2438900e-01 9.8995700e-02
7.0138144e-01 3.1217744e-01 9.6333000e-02
6.8111578e-01 2.9919644e-01 9.2536333e-02
6.5971900e-01 2.8544600e-01 8.7605700e-02
6.5971900e-01 2.8544600e-01 8.7605700e-02
6.4060322e-01 2.7019611e-01 8.2074033e-02
6.2373956e-01 2.5484844e-01 7.8104000e-02
6.0912800e-01 2.3940300e-01 7.5695600e-02
5.9676856e-01 2.2385978e-01 7.4848833e-02
5.8666122e-01 2.0821878e-01 7.5563700e-02
5.7880600e-01 1.9248000e-01 7.7840200e-02
5.7880600e-01 1.9248000e-01 7.7840200e-02
5.6900522e-01 1.7771200e-01 7.8084322e-02
5.5902856e-01 1.6336833e-01 7.7797389e-02
5.4887600e-01 1.4944900e-01 7.6979400e-02
5.3854756e-01 1.3595400e-01 7.5630356e-02
5.2804322e-01 1.2288333e-01 7.3750256e-02
5.1736300e-01 1.1023700e-01 7.1339100e-02
5.1736300e-01 1.1023700e-01 7.1339100e-02
5.0804700e-01 9.7667878e-02 7.1013011e-02
4.9817267e-01 8.5384444e-02 7.0134144e-02
4.8774000e-01 7.3386700e-02 6.8702500e-02
4.7674900e-01 6.1674644e-02 6.6718078e-02
4.6519967e-01 5.0248278e-02 6.4180878e-02
4.5309200e-01 3.9107600e-02 6.1090900e-02
4.5309200e-01 3.9107600e-02 6.1090900e-02
4.3989767e-01 2.8745267e-02 5.6382433e-02
4.2526000e-01 1.8968360e-02 5.1170167e-02
4.0917900e-01 9.7768800e-03 4.5454100e-02
3.9165467e-01 1.1708267e-03 3.9234233e-02
3.7268700e-01 -6.8498000e-03 3.2510567e-02
3.5227600e-01 -1.4285000e-02 2.5283100e-02
3.5227600e-01 -1.4285000e-02 2.5283100e-02
3.2790867e-01 -2.0936833e-02 1.7994341e-02
3.0322267e-01 -2.6107700e-02 1.1666531e-02
2.7821800e-01 -2.9797600e-02 6.2996700e-03
2.5289467e-01 -3.2006533e-02 1.8937578e-03
2.2725267e-01 -3.2734500e-02 -1.5512056e-03
2.0129200e-01 -3.1981500e-02 -4.0352200e-03
2.0129200e-01 -3.1981500e-02 -4.0352200e-03
1.7757926e-01 -2.8791808e-02 -6.6777889e-03
1.5522359e-01 -2.5223841e-02 -8.7404489e-03
1.3422500e-01 -2.1277600e-02 -1.0223200e-02
1.1458349e-01 -1.6953084e-02 -1.1126042e-02
9.6299056e-02 -1.2250294e-02 -1.1448976e-02
7.9371700e-02 -7.1692300e-03 -1.1192000e-02
7.9371700e-02 -7.1692300e-03 -1.1192000e-02
6.4433240e-02 -4.7151722e-03 -8.9032256e-03
5.0292740e-02 -2.6385796e-03 -6.4671922e-03
3.6950200e-02 -9.3945200e-04 -3.8839000e-03
2.4405620e-02 3.8221044e-04 -1.1533489e-03
1.2659000e-02 1.3264078e-03 1.7244611e-03
1.7103400e-03 1.8931400e-03 4.7495300e-03
9.2716700e-01 4.9510700e-01 -1.7248400e-02
9.3935300e-01 4.9751422e-01 -1.1021752e-02
9.5090667e-01 4.9829322e-01 -5.0737160e-03
9.6182800e-01 4.9744400e-01 5.9570700e-04
9.7211700e-01 4.9496656e-01 5.9865173e-03
9.8177367e-01 4.9086089e-01 1.1098715e-02
9.9079800e-01 4.8512700e-01 1.5932300e-02
9.9079800e-01 4.8512700e-01 1.5932300e-02
9.9850333e-01 4.7430567e-01 1.8753977e-02
1.0055873e+00 4.6238233e-01 2.0009643e-02
1.0120500e+00 4.4935700e-01 1.9699300e-02
1.0178913e+00 4.3522967e-01 1.7822947e-02
1.0231113e+00 4.2000033e-01 1.4380583e-02
1.0277100e+00 4.0366900e-01 9.3722100e-03
1.0277100e+00 4.0366900e-01 9.3722100e-03
1.0319667e+00 3.8610589e-01 5.0150111e-03
1.0353000e+00 3.7075422e-01 1.0687711e-03
1.0377100e+00 3.5761400e-01 -2.4665100e-03
1.0391967e+00 3.4668522e-01 -5.5908322e-03
1.0397600e+00 3.3796789e-01 -8.3041956e-03
1.0394000e+00 3.3146200e-01 -1.0606600e-02
1.0394000e+00 3.3146200e-01 -1.0606600e-02
1.0387389e+00 3.3169556e-01 -1.1340053e-02
1.0388489e+00 3.3231422e-01 -1.1571487e-02
1.0397300e+00 3.3331800e-01 -1.1300900e-02
1.0413822e+00 3.3470689e-01 -1.0528293e-02
1.0438056e+00 3.3648089e-01 -9.2536667e-03
1.0470000e+00 3.3864000e-01 -7.4770200e-03
8.9788600e-01 4.8299800e-01 2.1073800e-02
9.0503356e-01 4.8191100e-01 3.1527078e-02
9.1129289e-01 4.7952267e-01 4.0633878e-02
9.1666400e-01 4.7583300e-01 4.8394200e-02
9.2114689e-01 4.7084200e-01 5.4808044e-02
9.2474156e-01 4.6454967e-01 5.9875411e-02
9.2744800e-01 4.5695600e-01 6.3596300e-02
1.0915000e+00 1.2780300e-01 -3.8915900e-02
1.0823778e+00 1.1305490e-01 -3.7449689e-02
1.0729944e+00 9.8936433e-02 -3.5569256e-02
1.0633500e+00 8.5447600e-02 -3.3274600e-02
1.0534444e+00 7.2588400e-02 -3.0565722e-02
1.0432778e+00 6.0358833e-02 -2.7442622e-02
1.0328500e+00 4.8758900e-02 -2.3905300e-02
1.0328500e+00 4.8758900e-02 -2.3905300e-02
1.0272310e+00 4.1888044e-02 -2.2889551e-02
1.0204510e+00 3.5617578e-02 -2.0713051e-02
1.0125100e+00 2.9947500e-02 -1.7375800e-02
1.0034080e+00 2.4877811e-02 -1.2877797e-02
9.9314500e-01 2.0408511e-02 -7.2190428e-03
9.8172100e-01 1.6539600e-02 -3.9953700e-04
9.8172100e-01 1.6539600e-02 -3.9953700e-04
9.6892178e-01 1.1881418e-02 5.5852128e-03
9.5572911e-01 7.7836111e-03 1.1055325e-02
9.4214300e-01 4.2461800e-03 1.6010800e-02
9.2816344e-01 1.2691244e-03 2.0451637e-02
9.1379044e-01 -1.1475556e-03 2.4377837e-02
8.9902400e-01 -3.0038600e-03 2.7789400e-02
8.9902400e-01 -3.0038600e-03 2.7789400e-02
8.7836389e-01 -4.9545922e-03 3.0774833e-02
8.5721822e-01 -6.5291322e-03 3.2733700e-02
8.3558700e-01 -7.7274800e-03 3.3666000e-02
8.1347022e-01 -8.5496356e-03 3.3571733e-02
7.9086789e-01 -8.9955989e-03 3.2450900e-02
7.6778000e-01 -9.0653700e-03 3.0303500e-02
7.6778000e-01 -9.0653700e-03 3.0303500e-02
7.4843189e-01 -7.6491511e-03 2.8590311e-02
7.2934189e-01 -5.8031678e-03 2.6620544e-02
7.1051000e-01 -3.5274200e-03 2.4394200e-02
6.9193622e-01 -8.2190778e-04 2.1911278e-02
6.7362056e-01 2.3133689e-03 1.9171778e-02
6.5556300e-01 5.8784100e-03 1.6175700e-02
6.5556300e-01 5.8784100e-03 1.6175700e-02
6.3724322e-01 8.7193500e-03 1.2371064e-02
6.1871556e-01 1.1838213e-02 8.5646078e-03
5.9998000e-01 1.5235000e-02 4.7563300e-03
5.8103656e-01 1.8909710e-02 9.4623111e-04
5.6188522e-01 2.2862343e-02 -2.8656889e-03
5.4252600e-01 2.7092900e-02 -6.6794300e-03
5.4252600e-01 2.7092900e-02 -6.6794300e-03
5.2486967e-01 3.0541011e-02 -1.0266850e-02
5.0588867e-01 3.4504544e-02 -1.3279073e-02
4.8558300e-01 3.8983500e-02 -1.5716100e-02
4.6395267e-01 4.3977878e-02 -1.7577930e-02
4.4099767e-01 4.9487678e-02 -1.8864563e-02
4.1671800e-01 5.5512900e-02 -1.9576000e-02
4.1671800e-01 5.5512900e-02 -1.9576000e-02
3.8840178e-01 6.3313022e-02 -1.8611899e-02
3.6109544e-01 6.9534589e-02 -1.7359532e-02
3.3479900e-01 7.4177600e-02 -1.5818900e-02
3.0951244e-01 7.7242056e-02 -1.3990002e-02
2.8523578e-01 7.8727956e-02 -1.1872839e-02
2.6196900e-01 7.8635300e-02 -9.4674100e-03
2.6196900e-01 7.8635300e-02 -9.4674100e-03
2.3714656e-01 7.6633489e-02 -6.9858044e-03
2.1392389e-01 7.3753956e-02 -4.6787378e-03
1.9230100e-01 6.9996700e-02 -2.5462100e-03
1.7227789e-01 6.5361722e-02 -5.8822111e-04
1.5385456e-01 5.9849022e-02 1.1952289e-03
1.3703100e-01 5.3458600e-02 2.8041400e-03
1.3703100e-01 5.3458600e-02 2.8041400e-03
1.2096000e-01 4.7319144e-02 5.3010833e-03
1.0564840e-01 4.1243311e-02 7.6342867e-03
9.1096200e-02 3.5231100e-02 9.8037500e-03
7.7303400e-02 2.9282511e-02 1.1809473e-02
6.4270000e-02 2.3397544e-02 1.3651457e-02
5.1996000e-02 1.7576200e-02 1.5329700e-02
5.1996000e-02 1.7576200e-02 1.5329700e-02
4.5249189e-02 1.5012422e-02 1.2790287e-02
3.8308322e-02 1.1868439e-02 1.0294527e-02
3.1173400e-02 8.1442500e-03 7.8424200e-03
2.3844422e-02 3.8398556e-03 5.4339662e-03
1.6321389e-02 -1.0447444e-03 3.0691656e-03
8.6043000e-03 -6.5095500e-03 7.4801800e-04
3.4658900e+00 2.4429700e-01 8.0438200e-02
3.4601278e+00 2.2539122e-01 8.6371000e-02
3.4538578e+00 2.0709522e-01 9.2157667e-02
3.4470800e+00 1.8940900e-01 9.7798200e-02
3.4397944e+00 1.7233256e-01 1.0329260e-01
3.4320011e+00 1.5586589e-01 1.0864087e-01
3.4237000e+00 1.4000900e-01 1.1384300e-01
3.4237000e+00 1.4000900e-01 1.1384300e-01
3.4163711e+00 1.2939500e-01 1.1727556e-01
3.4088811e+00 1.2165000e-01 1.2045756e-01
3.4012300e+00 1.1677400e-01 1.2338900e-01
3.3934178e+00 1.1476700e-01 1.2606989e-01
3.3854444e+00 1.1562900e-01 1.2850022e-01
3.3773100e+00 1.1936000e-01 1.3068000e-01
3.3773100e+00 1.1936000e-01 1.3068000e-01
3.3690300e+00 1.2268411e-01 1.3249300e-01
3.3597433e+00 1.2638178e-01 1.3445333e-01
3.3494500e+00 1.3045300e-01 1.3656100e-01
3.3381500e+00 1.3489778e-01 1.3881600e-01
3.3258433e+00 1.3971611e-01 1.4121833e-01
3.3125300e+00 1.4490800e-01 1.4376800e-01
3.3125300e+00 1.4490800e-01 1.4376800e-01
3.2946900e+00 1.5069678e-01 1.4815033e-01
3.2777067e+00 1.5369878e-01 1.5238900e-01
3.2615800e+00 1.5391400e-01 1.5648400e-01
3.2463100e+00 1.5134244e-01 1.6043533e-01
3.2318967e+00 1.4598411e-01 1.6424300e-01
3.2183400e+00 1.3783900e-01 1.6790700e-01
3.2183400e+00 1.3783900e-01 1.6790700e-01
3.2077067e+00 1.2848763e-01 1.6918167e-01
3.1976400e+00 1.1876563e-01 1.6914767e-01
3.1881400e+00 1.0867300e-01 1.6780500e-01
3.1792067e+00 9.8209733e-02 1.6515367e-01
3.1708400e+00 8.7375833e-02 1.6119367e-01
3.1630400e+00 7.6171300e-02 1.5592500e-01
3.1630400e+00 7.6171300e-02 1.5592500e-01
3.1485156e+00 8.6299500e-02 1.5699900e-01
3.1327922e+00 9.5884067e-02 1.5728700e-01
3.1158700e+00 1.0492500e-01 1.5678900e-01
3.0977489e+00 1.1342230e-01 1.5550500e-01
3.0784289e+00 1.2137597e-01 1.5343500e-01
3.0579100e+00 1.2878600e-01 1.5057900e-01
3.0579100e+00 1.2878600e-01 1.5057900e-01
3.0382856e+00 1.3329844e-01 1.4451733e-01
3.0201156e+00 1.3553778e-01 1.3789633e-01
3.0034000e+00 1.3550400e-01 1.3071600e-01
2.9881389e+00 1.3319711e-01 1.2297633e-01
2.9743322e+00 1.2861711e-01 1.1467733e-01
2.9619800e+00 1.2176400e-01 1.0581900e-01
2.9619800e+00 1.2176400e-01 1.0581900e-01
2.9515278e+00 1.1269218e-01 1.0045313e-01
2.9401011e+00 1.0329461e-01 9.4611900e-02
2.9277000e+00 9.3571300e-02 8.8295300e-02
2.9143244e+00 8.3522244e-02 8.1503333e-02
2.8999744e+00 7.3147444e-02 7.4236000e-02
2.8846500e+00 6.2446900e-02 6.6493300e-02
2.8846500e+00 6.2446900e-02 6.6493300e-02
2.8655522e+00 5.2018522e-02 5.6358889e-02
2.8446156e+00 4.4138089e-02 4.7101422e-02
2.8218400e+00 3.8805600e-02 3.8720900e-02
2.7972256e+00 3.6021056e-02 3.1217322e-02
2.7707722e+00 3.5784456e-02 2.4590689e-02
2.7424800e+00 3.8095800e-02 1.8841000e-02
2.7424800e+00 3.8095800e-02 1.8841000e-02
2.7138700e+00 4.5919311e-02 1.6374244e-02
2.6879133e+00 5.3673744e-02 1.4504878e-02
2.6646100e+00 6.1359100e-02 1.3232900e-02
2.6439600e+00 6.8975378e-02 1.2558311e-02
2.6259633e+00 7.6522578e-02 1.2481111e-02
2.6106200e+00 8.4000700e-02 1.3001300e-02
2.6587200e+00 1.1211400e-01 -3.9706300e-03
2.6546700e+00 1.0423559e-01 -3.3391194e-03
2.6490333e+00 9.7634322e-02 -1.8287511e-03
2.6418100e+00 9.2310200e-02 5.6047500e-04
2.6330000e+00 8.8263222e-02 3.8285589e-03
2.6226033e+00 8.5493389e-02 7.9755006e-03
2.6106200e+00 8.4000700e-02 1.3001300e-02
3.2994100e+00 2.6688200e-01 7.9232700e-02
3.2892044e+00 2.5905100e-01 7.2234989e-02
3.2789978e+00 2.5107600e-01 6.4865556e-02
3.2687900e+00 2.4295700e-01 5.7124400e-02
3.2585811e+00 2.3469400e-01 4.9011522e-02
3.2483711e+00 2.2628700e-01 4.0526922e-02
3.2381600e+00 2.1773600e-01 3.1670600e-02
3.2381600e+00 2.1773600e-01 3.1670600e-02
3.2284356e+00 2.0731133e-01 2.2910767e-02
3.2189289e+00 1.9755667e-01 1.6416533e-02
3.2096400e+00 1.8847200e-01 1.2187900e-02
3.2005689e+00 1.8005733e-01 1.0224867e-02
3.1917156e+00 1.7231267e-01 1.0527433e-02
3.1830800e+00 1.6523800e-01 1.3095600e-02
3.1830800e+00 1.6523800e-01 1.3095600e-02
3.1694178e+00 1.6192256e-01 2.4089989e-02
3.1547344e+00 1.5959622e-01 3.5264056e-02
3.1390300e+00 1.5825900e-01 4.6617800e-02
3.1223044e+00 1.5791089e-01 5.8151222e-02
3.1045578e+00 1.5855189e-01 6.9864322e-02
3.0857900e+00 1.6018200e-01 8.1757100e-02
3.0857900e+00 1.6018200e-01 8.1757100e-02
3.0676844e+00 1.6423656e-01 9.5056611e-02
3.0487978e+00 1.6735256e-01 1.0859858e-01
3.0291300e+00 1.6953000e-01 1.2238300e-01
3.0086811e+00 1.7076889e-01 1.3640988e-01
2.9874511e+00 1.7106922e-01 1.5067921e-01
2.9654400e+00 1.7043100e-01 1.6519100e-01
2.9654400e+00 1.7043100e-01 1.6519100e-01
2.9427311e+00 1.5897544e-01 1.6358902e-01
2.9182244e+00 1.4894811e-01 1.5668369e-01
2.8919200e+00 1.4034900e-01 1.4447500e-01
2.8638178e+00 1.3317811e-01 1.2696296e-01
2.8339178e+00 1.2743544e-01 1.0414756e-01
2.8022200e+00 1.2312100e-01 7.6028800e-02
2.8022200e+00 1.2312100e-01 7.6028800e-02
2.7733144e+00 1.2226678e-01 5.4857848e-02
2.7464044e+00 1.2102044e-01 3.6821981e-02
2.7214900e+00 1.1938200e-01 2.1921200e-02
2.6985711e+00 1.1735144e-01 1.0155504e-02
2.6776478e+00 1.1492878e-01 1.5248944e-03
2.6587200e+00 1.1211400e-01 -3.9706300e-03
1.9392900e+00 1.8808200e-01 -1.5084200e-02
1.9596778e+00 1.7222300e-01 -1.2052789e-02
1.9837078e+00 1.5743800e-01 -1.0724622e-02
2.0113800e+00 1.4372700e-01 -1.1099700e-02
2.0426944e+00 1.3109000e-01 -1.3178022e-02
2.0776511e+00 1.1952700e-01 -1.6959589e-02
2.1162500e+00 1.0903800e-01 -2.2444400e-02
2.1162500e+00 1.0903800e-01 -2.2444400e-02
2.1532311e+00 1.1013644e-01 -2.2941401e-02
2.1888578e+00 1.1414944e-01 -2.2291734e-02
2.2231300e+00 1.2107700e-01 -2.0495400e-02
2.2560478e+00 1.3091911e-01 -1.7552398e-02
2.2876111e+00 1.4367578e-01 -1.3462728e-02
2.3178200e+00 1.5934700e-01 -8.2263900e-03
2.3178200e+00 1.5934700e-01 -8.2263900e-03
2.3459400e+00 1.7468622e-01 -5.1147133e-03
2.3749400e+00 1.8686656e-01 -2.1888080e-03
2.4048200e+00 1.9588800e-01 5.5132600e-04
2.4355800e+00 2.0175056e-01 3.1056887e-03
2.4672200e+00 2.0445422e-01 5.4742800e-03
2.4997400e+00 2.0399900e-01 7.6571000e-03
2.4997400e+00 2.0399900e-01 7.6571000e-03
2.5332700e+00 1.9178400e-01 7.5002311e-03
2.5639867e+00 1.7832933e-01 6.6309278e-03
2.5918900e+00 1.6363500e-01 5.0491900e-03
2.6169800e+00 1.4770100e-01 2.7550178e-03
2.6392567e+00 1.3052733e-01 -2.5158889e-04
2.6587200e+00 1.1211400e-01 -3.9706300e-03
1.5946500e+00 5.7677900e-01 -1.2793000e-02