# vtk DataFile Version 2.0
test
ASCII
DATASET POLYDATA
POINTS 4361 float
6.9265422e+00 7.6102385e+00 1.1855227e+01
7.0469945e+00 7.6544859e+00 1.1735296e+01
7.1682321e+00 7.6966548e+00 1.1615441e+01
7.2902550e+00 7.7367451e+00 1.1495662e+01
7.4130633e+00 7.7747568e+00 1.1375959e+01
7.5366569e+00 7.8106899e+00 1.1256331e+01
7.6610358e+00 7.8445444e+00 1.1136779e+01
7.6610358e+00 7.8445444e+00 1.1136779e+01
7.7878579e+00 7.8909646e+00 1.1020968e+01
7.9198847e+00 7.9352703e+00 1.0911411e+01
8.0571165e+00 7.9774615e+00 1.0808107e+01
8.1995530e+00 8.0175382e+00 1.0711056e+01
8.3471944e+00 8.0555004e+00 1.0620259e+01
8.5000406e+00 8.0913481e+00 1.0535715e+01
8.5000406e+00 8.0913481e+00 1.0535715e+01
8.6682547e+00 8.1174545e+00 1.0477011e+01
8.8382351e+00 8.1424521e+00 1.0436537e+01
9.0099820e+00 8.1663410e+00 1.0414291e+01
9.1834953e+00 8.1891212e+00 1.0410274e+01
9.3587750e+00 8.2107927e+00 1.0424486e+01
9.5358211e+00 8.2313554e+00 1.0456926e+01
9.5358211e+00 8.2313554e+00 1.0456926e+01
9.7104501e+00 8.2481309e+00 1.0484991e+01
9.8847378e+00 8.2634868e+00 1.0515841e+01
1.0058684e+01 8.2774232e+00 1.0549475e+01
1.0232289e+01 8.2899400e+00 1.0585895e+01
1.0405553e+01 8.3010373e+00 1.0625100e+01
1.0578476e+01 8.3107151e+00 1.0667089e+01
1.0578476e+01 8.3107151e+00 1.0667089e+01
1.0750861e+01 8.3185011e+00 1.0712413e+01
1.0924275e+01 8.3248721e+00 1.0752614e+01
1.1098718e+01 8.3298281e+00 1.0787691e+01
1.1274190e+01 8.3333690e+00 1.0817646e+01
1.1450691e+01 8.3354950e+00 1.0842477e+01
1.1628220e+01 8.3362059e+00 1.0862186e+01
1.1628220e+01 8.3362059e+00 1.0862186e+01
1.1808200e+01 8.3342331e+00 1.0873797e+01
1.1985990e+01 8.3307600e+00 1.0870428e+01
1.2161589e+01 8.3257867e+00 1.0852079e+01
1.2334998e+01 8.3193131e+00 1.0818748e+01
1.2506217e+01 8.3113393e+00 1.0770438e+01
1.2675245e+01 8.3018652e+00 1.0707146e+01
1.2675245e+01 8.3018652e+00 1.0707146e+01
1.2836048e+01 8.2914201e+00 1.0625146e+01
1.2988479e+01 8.2841486e+00 1.0532382e+01
1.3132537e+01 8.2800507e+00 1.0428853e+01
1.3268223e+01 8.2791264e+00 1.0314559e+01
1.3395537e+01 8.2813757e+00 1.0189501e+01
1.3514478e+01 8.2867986e+00 1.0053678e+01
1.3514478e+01 8.2867986e+00 1.0053678e+01
1.3619171e+01 8.3230260e+00 9.9123165e+00
1.3723610e+01 8.3544503e+00 9.7696115e+00
1.3827794e+01 8.3810718e+00 9.6255631e+00
1.3931723e+01 8.4028903e+00 9.4801713e+00
1.4035397e+01 8.4199058e+00 9.3334359e+00
1.4138816e+01 8.4321184e+00 9.1853571e+00
1.4138816e+01 8.4321184e+00 9.1853571e+00
1.4024301e+01 8.3529124e+00 9.0568114e+00
1.3909285e+01 8.2692089e+00 8.9326934e+00
1.3793768e+01 8.1810078e+00 8.8130031e+00
1.3677751e+01 8.0883093e+00 8.6977405e+00
1.3561232e+01 7.9911132e+00 8.5869056e+00
1.3444213e+01 7.8894196e+00 8.4804983e+00
1.3444213e+01 7.8894196e+00 8.4804983e+00
1.3326061e+01 7.8118033e+00 8.3568700e+00
1.3211099e+01 7.7320566e+00 8.2320692e+00
1.3099329e+01 7.6501797e+00 8.1060958e+00
1.2990748e+01 7.5661724e+00 7.9789500e+00
1.2885359e+01 7.4800349e+00 7.8506316e+00
1.2783160e+01 7.3917670e+00 7.7211408e+00
1.2783160e+01 7.3917670e+00 7.7211408e+00
1.2684969e+01 7.3095550e+00 7.5839515e+00
1.2593578e+01 7.2248778e+00 7.4446387e+00
1.2508989e+01 7.1377355e+00 7.3032023e+00
1.2431200e+01 7.0481279e+00 7.1596423e+00
1.2360213e+01 6.9560551e+00 7.0139587e+00
1.2296027e+01 6.8615171e+00 6.8661516e+00
1.2296027e+01 6.8615171e+00 6.8661516e+00
1.2247914e+01 6.7643507e+00 6.7158376e+00
1.2206678e+01 6.6656245e+00 6.5649511e+00
1.2172319e+01 6.5653385e+00 6.4134921e+00
1.2144837e+01 6.4634928e+00 6.2614608e+00
1.2124231e+01 6.3600872e+00 6.1088569e+00
1.2110503e+01 6.2551220e+00 5.9556807e+00
1.2110503e+01 6.2551220e+00 5.9556807e+00
1.2105817e+01 6.1483221e+00 5.8036086e+00
1.2107923e+01 6.0393833e+00 5.6539377e+00
1.2116821e+01 5.9283055e+00 5.5066682e+00
1.2132511e+01 5.8150887e+00 5.3618000e+00
1.2154993e+01 5.6997329e+00 5.2193331e+00
1.2184266e+01 5.5822382e+00 5.0792676e+00
1.2184266e+01 5.5822382e+00 5.0792676e+00
1.2214832e+01 5.4630913e+00 4.9415556e+00
1.2247043e+01 5.3434196e+00 4.8047189e+00
1.2280897e+01 5.2232229e+00 4.6687576e+00
1.2316395e+01 5.1025012e+00 4.5336717e+00
1.2353537e+01 4.9812547e+00 4.3994612e+00
1.2392323e+01 4.8594833e+00 4.2661260e+00
1.2392323e+01 4.8594833e+00 4.2661260e+00
1.2429987e+01 4.7371444e+00 4.1334644e+00
1.2463998e+01 4.6120158e+00 4.0022087e+00
1.2494354e+01 4.4840975e+00 3.8723590e+00
1.2521057e+01 4.3533895e+00 3.7439154e+00
1.2544106e+01 4.2198919e+00 3.6168777e+00
1.2563500e+01 4.0836046e+00 3.4912461e+00
1.2563500e+01 4.0836046e+00 3.4912461e+00
1.2579141e+01 3.9446308e+00 3.3678079e+00
1.2588579e+01 3.8053228e+00 3.2447342e+00
1.2591815e+01 3.6656804e+00 3.1220250e+00
1.2588846e+01 3.5257038e+00 2.9996802e+00
1.2579675e+01 3.3853928e+00 2.8777000e+00
1.2564301e+01 3.2447475e+00 2.7560842e+00
1.2564301e+01 3.2447475e+00 2.7560842e+00
1.2540540e+01 3.1025314e+00 2.6364848e+00
1.2509333e+01 2.9604098e+00 2.5191707e+00
1.2470680e+01 2.8183828e+00 2.4041418e+00
1.2424581e+01 2.6764504e+00 2.2913982e+00
1.2371036e+01 2.5346125e+00 2.1809399e+00
1.2310046e+01 2.3928693e+00 2.0727668e+00
1.2310046e+01 2.3928693e+00 2.0727668e+00
1.2243153e+01 2.2551421e+00 1.9634606e+00
1.2171242e+01 2.1184222e+00 1.8563010e+00
1.2094314e+01 1.9827097e+00 1.7512880e+00
1.2012367e+01 1.8480044e+00 1.6484217e+00
1.1925403e+01 1.7143064e+00 1.5477020e+00
1.1833422e+01 1.5816157e+00 1.4491289e+00
1.1833422e+01 1.5816157e+00 1.4491289e+00
1.1731550e+01 1.4513437e+00 1.3558570e+00
1.1627315e+01 1.3218852e+00 1.2644981e+00
1.1520717e+01 1.1932401e+00 1.1750522e+00
1.1411757e+01 1.0654085e+00 1.0875192e+00
1.1300434e+01 9.3839036e-01 1.0018992e+00
1.1186748e+01 8.1218568e-01 9.1819217e-01
1.1186748e+01 8.1218568e-01 9.1819217e-01
1.1074569e+01 6.8208181e-01 8.3397819e-01
1.0962103e+01 5.5250602e-01 7.5042670e-01
1.0849348e+01 4.2345830e-01 6.6753769e-01
1.0736306e+01 2.9493866e-01 5.8531115e-01
1.0622976e+01 1.6694709e-01 5.0374710e-01
1.0509358e+01 3.9483600e-02 4.2284553e-01
4.5228500e+00 6.6453021e+00 1.1743368e+01
4.4727164e+00 6.5916964e+00 1.1566721e+01
4.4208730e+00 6.5313456e+00 1.1393331e+01
4.3673198e+00 6.4642495e+00 1.1223200e+01
4.3120568e+00 6.3904083e+00 1.1056326e+01
4.2550839e+00 6.3098219e+00 1.0892710e+01
4.1964012e+00 6.2224903e+00 1.0732353e+01
4.1964012e+00 6.2224903e+00 1.0732353e+01
4.1520552e+00 6.1565720e+00 1.0558314e+01
4.1131229e+00 6.0884996e+00 1.0384286e+01
4.0796046e+00 6.0182731e+00 1.0210269e+01
4.0515001e+00 5.9458924e+00 1.0036262e+01
4.0288094e+00 5.8713577e+00 9.8622662e+00
4.0115326e+00 5.7946689e+00 9.6882812e+00
4.0115326e+00 5.7946689e+00 9.6882812e+00
4.0014423e+00 5.7142794e+00 9.5147488e+00
3.9982173e+00 5.6304591e+00 9.3436754e+00
4.0018576e+00 5.5432080e+00 9.1750610e+00
4.0123632e+00 5.4525260e+00 9.0089055e+00
4.0297340e+00 5.3584131e+00 8.8452090e+00
4.0539702e+00 5.2608695e+00 8.6839715e+00
4.0539702e+00 5.2608695e+00 8.6839715e+00
4.0995295e+00 5.1543628e+00 8.5306950e+00
4.1583033e+00 5.0448307e+00 8.3882882e+00
4.2302916e+00 4.9322733e+00 8.2567512e+00
4.3154943e+00 4.8166905e+00 8.1360838e+00
4.4139116e+00 4.6980823e+00 8.0262863e+00
4.5255433e+00 4.5764487e+00 7.9273584e+00
4.5255433e+00 4.5764487e+00 7.9273584e+00
4.6340854e+00 4.4564331e+00 7.8292308e+00
4.7423481e+00 4.3359686e+00 7.7315242e+00
4.8503312e+00 4.2150554e+00 7.6342385e+00
4.9580348e+00 4.0936933e+00 7.5373737e+00
5.0654589e+00 3.9718823e+00 7.4409299e+00
5.1726035e+00 3.8496226e+00 7.3449070e+00
5.1726035e+00 3.8496226e+00 7.3449070e+00
5.2801947e+00 3.7239062e+00 7.2521665e+00
5.3823480e+00 3.5956422e+00 7.1574833e+00
5.4790632e+00 3.4648307e+00 7.0608576e+00
5.5703405e+00 3.3314715e+00 6.9622892e+00
5.6561797e+00 3.1955648e+00 6.8617782e+00
5.7365809e+00 3.0571105e+00 6.7593246e+00
5.7365809e+00 3.0571105e+00 6.7593246e+00
5.8074477e+00 2.9170687e+00 6.6509481e+00
5.8671266e+00 2.7774072e+00 6.5374691e+00
5.9156178e+00 2.6381262e+00 6.4188879e+00
5.9529211e+00 2.4992255e+00 6.2952043e+00
5.9790365e+00 2.3607053e+00 6.1664183e+00
5.9939642e+00 2.2225654e+00 6.0325300e+00
5.9939642e+00 2.2225654e+00 6.0325300e+00
5.9929078e+00 2.0877726e+00 5.8944409e+00
5.9822787e+00 1.9546598e+00 5.7563929e+00
5.9620768e+00 1.8232270e+00 5.6183860e+00
5.9323022e+00 1.6934743e+00 5.4804201e+00
5.8929548e+00 1.5654015e+00 5.3424954e+00
5.8440346e+00 1.4390087e+00 5.2046118e+00
5.8440346e+00 1.4390087e+00 5.2046118e+00
5.7902771e+00 1.3157600e+00 5.0651986e+00
5.7330086e+00 1.1943771e+00 4.9257355e+00
5.6722290e+00 1.0748599e+00 4.7862224e+00
5.6079385e+00 9.5720855e-01 4.6466594e+00
5.5401369e+00 8.4142297e-01 4.5070465e+00
5.4688244e+00 7.2750316e-01 4.3673836e+00
5.4688244e+00 7.2750316e-01 4.3673836e+00
5.3957989e+00 6.0862172e-01 4.2324627e+00
5.3218889e+00 4.8956556e-01 4.0981781e+00
5.2470944e+00 3.7033466e-01 3.9645298e+00
5.1714154e+00 2.5092904e-01 3.8315179e+00
5.0948520e+00 1.3134868e-01 3.6991422e+00
5.0174041e+00 1.1593600e-02 3.5674029e+00
3.3044700e+00 6.4560244e+00 1.3796347e+01
3.3895786e+00 6.5680264e+00 1.3658962e+01
3.4859023e+00 6.6770993e+00 1.3530790e+01
3.5934411e+00 6.7832432e+00 1.3411833e+01
3.7121950e+00 6.8864581e+00 1.3302089e+01
3.8421641e+00 6.9867440e+00 1.3201559e+01
3.9833482e+00 7.0841009e+00 1.3110243e+01
3.9833482e+00 7.0841009e+00 1.3110243e+01
4.1534430e+00 7.1606404e+00 1.3056222e+01
4.3285603e+00 7.2261026e+00 1.3013683e+01
4.5087000e+00 7.2804874e+00 1.2982624e+01
4.6938622e+00 7.3237948e+00 1.2963047e+01
4.8840469e+00 7.3560248e+00 1.2954951e+01
5.0792540e+00 7.3771774e+00 1.2958337e+01
5.0792540e+00 7.3771774e+00 1.2958337e+01
5.2749480e+00 7.3896418e+00 1.2962717e+01
5.4666215e+00 7.4038583e+00 1.2950245e+01
5.6542748e+00 7.4198269e+00 1.2920921e+01
5.8379077e+00 7.4375477e+00 1.2874744e+01
6.0175202e+00 7.4570207e+00 1.2811716e+01
6.1931125e+00 7.4782458e+00 1.2731835e+01
6.1931125e+00 7.4782458e+00 1.2731835e+01
6.3433949e+00 7.5091678e+00 1.2611531e+01
6.4824596e+00 7.5365205e+00 1.2480908e+01
6.6103067e+00 7.5603039e+00 1.2339966e+01
6.7269362e+00 7.5805181e+00 1.2188705e+01
[...]
POINT_DATA 4361
VECTORS U float
3.6296400e+00 1.1473900e+00 -1.2030600e-02
3.6542567e+00 1.1201413e+00 1.7328333e-03
3.6770233e+00 1.0904913e+00 1.3252633e-02
3.6979400e+00 1.0584400e+00 2.2528800e-02
3.7170067e+00 1.0239873e+00 2.9561333e-02
3.7342233e+00 9.8713333e-01 3.4350233e-02
3.7495900e+00 9.4787800e-01 3.6895500e-02
3.7495900e+00 9.4787800e-01 3.6895500e-02
3.7612222e+00 9.1999044e-01 3.8960072e-02
3.7708689e+00 8.9045611e-01 3.7152539e-02
3.7785300e+00 8.5927500e-01 3.1472900e-02
3.7842056e+00 8.2644711e-01 2.1921156e-02
3.7878956e+00 7.9197244e-01 8.4973056e-03
3.7896000e+00 7.5585100e-01 -8.7986500e-03
3.7896000e+00 7.5585100e-01 -8.7986500e-03
3.7981733e+00 7.1268878e-01 -1.8799950e-02
3.8057667e+00 6.7228078e-01 -2.3345433e-02
3.8123800e+00 6.3462700e-01 -2.2435100e-02
3.8180133e+00 5.9972744e-01 -1.6068950e-02
3.8226667e+00 5.6758211e-01 -4.2469833e-03
3.8263400e+00 5.3819100e-01 1.3030800e-02
3.8263400e+00 5.3819100e-01 1.3030800e-02
3.8290200e+00 5.0961922e-01 1.7667356e-02
3.8313033e+00 4.8301989e-01 2.1413289e-02
3.8331900e+00 4.5839300e-01 2.4268600e-02
3.8346800e+00 4.3573856e-01 2.6233289e-02
3.8357733e+00 4.1505656e-01 2.7307356e-02
3.8364700e+00 3.9634700e-01 2.7490800e-02
3.8364700e+00 3.9634700e-01 2.7490800e-02
3.8361789e+00 3.7836867e-01 3.1168989e-02
3.8359156e+00 3.6173167e-01 3.3776156e-02
3.8356800e+00 3.4643600e-01 3.5312300e-02
3.8354722e+00 3.3248167e-01 3.5777422e-02
3.8352922e+00 3.1986867e-01 3.5171522e-02
3.8351400e+00 3.0859700e-01 3.3494600e-02
3.8351400e+00 3.0859700e-01 3.3494600e-02
3.8347322e+00 2.9749844e-01 3.2443436e-02
3.8336989e+00 2.8791344e-01 2.9605636e-02
3.8320400e+00 2.7984200e-01 2.4981200e-02
3.8297556e+00 2.7328411e-01 1.8570129e-02
3.8268456e+00 2.6823978e-01 1.0372422e-02
3.8233100e+00 2.6470900e-01 3.8807900e-04
3.8233100e+00 2.6470900e-01 3.8807900e-04
3.8190422e+00 2.6336244e-01 -9.4002006e-03
3.8132322e+00 2.6681844e-01 -1.9699260e-02
3.8058800e+00 2.7507700e-01 -3.0509100e-02
3.7969856e+00 2.8813811e-01 -4.1829720e-02
3.7865489e+00 3.0600178e-01 -5.3661120e-02
3.7745700e+00 3.2866800e-01 -6.6003300e-02
3.7745700e+00 3.2866800e-01 -6.6003300e-02
3.7546522e+00 3.8257200e-01 -7.9708611e-02
3.7371189e+00 4.3197267e-01 -9.2439511e-02
3.7219700e+00 4.7687000e-01 -1.0419600e-01
3.7092056e+00 5.1726400e-01 -1.1497808e-01
3.6988256e+00 5.5315467e-01 -1.2478574e-01
3.6908300e+00 5.8454200e-01 -1.3361900e-01
3.6908300e+00 5.8454200e-01 -1.3361900e-01
3.6711767e+00 5.6898389e-01 -1.1792479e-01
3.6496800e+00 5.4944289e-01 -9.7193722e-02
3.6263400e+00 5.2591900e-01 -7.1425800e-02
3.6011567e+00 4.9841222e-01 -4.0621022e-02
3.5741300e+00 4.6692256e-01 -4.7793889e-03
3.5452600e+00 4.3145000e-01 3.6099100e-02
3.5452600e+00 4.3145000e-01 3.6099100e-02
3.5127411e+00 4.2110567e-01 6.1092722e-02
3.4786444e+00 4.1018967e-01 8.6472689e-02
3.4429700e+00 3.9870200e-01 1.1223900e-01
3.4057178e+00 3.8664267e-01 1.3839166e-01
3.3668878e+00 3.7401167e-01 1.6493066e-01
3.3264800e+00 3.6080900e-01 1.9185600e-01
3.3264800e+00 3.6080900e-01 1.9185600e-01
3.2830056e+00 3.5594778e-01 2.1336422e-01
3.2370322e+00 3.5066144e-01 2.3349756e-01
3.1885600e+00 3.4495000e-01 2.5225600e-01
3.1375889e+00 3.3881344e-01 2.6963956e-01
3.0841189e+00 3.3225178e-01 2.8564822e-01
3.0281500e+00 3.2526500e-01 3.0028200e-01
3.0281500e+00 3.2526500e-01 3.0028200e-01
2.9758789e+00 3.1756022e-01 3.1166933e-01
2.9206056e+00 3.0927322e-01 3.2009733e-01
2.8623300e+00 3.0040400e-01 3.2556600e-01
2.8010522e+00 2.9095256e-01 3.2807533e-01
2.7367722e+00 2.8091889e-01 3.2762533e-01
2.6694900e+00 2.7030300e-01 3.2421600e-01
2.6694900e+00 2.7030300e-01 3.2421600e-01
2.6031067e+00 2.5795511e-01 3.1783344e-01
2.5381433e+00 2.4386144e-01 3.1067478e-01
2.4746000e+00 2.2802200e-01 3.0274000e-01
2.4124767e+00 2.1043678e-01 2.9402911e-01
2.3517733e+00 1.9110578e-01 2.8454211e-01
2.2924900e+00 1.7002900e-01 2.7427900e-01
2.2924900e+00 1.7002900e-01 2.7427900e-01
2.2316333e+00 1.4772259e-01 2.6355911e-01
2.1709067e+00 1.2589959e-01 2.5171878e-01
2.1103100e+00 1.0456000e-01 2.3875800e-01
2.0498433e+00 8.3703822e-02 2.2467678e-01
1.9895067e+00 6.3331056e-02 2.0947511e-01
1.9293000e+00 4.3441700e-02 1.9315300e-01
1.9293000e+00 4.3441700e-02 1.9315300e-01
1.8679756e+00 2.4431411e-02 1.7623211e-01
1.8045189e+00 4.7353444e-03 1.5997578e-01
1.7389300e+00 -1.5646500e-02 1.4438400e-01
1.6712089e+00 -3.6714122e-02 1.2945678e-01
1.6013556e+00 -5.8467522e-02 1.1519411e-01
1.5293700e+00 -8.0906700e-02 1.0159600e-01
1.5293700e+00 -8.0906700e-02 1.0159600e-01
1.4565056e+00 -1.0319917e-01 9.0138256e-02
1.3828189e+00 -1.2263960e-01 7.9074156e-02
1.3083100e+00 -1.3922800e-01 6.8403700e-02
1.2329789e+00 -1.5296437e-01 5.8126889e-02
1.1568256e+00 -1.6384870e-01 4.8243722e-02
1.0798500e+00 -1.7188100e-01 3.8754200e-02
1.0798500e+00 -1.7188100e-01 3.8754200e-02
1.0026412e+00 -1.7745033e-01 3.1720289e-02
9.2787456e-01 -1.8046100e-01 2.6331556e-02
8.5555000e-01 -1.8091300e-01 2.2588000e-02
7.8566756e-01 -1.7880633e-01 2.0489622e-02
7.1822722e-01 -1.7414100e-01 2.0036422e-02
6.5322900e-01 -1.6691700e-01 2.1228400e-02
6.5322900e-01 -1.6691700e-01 2.1228400e-02
5.9471011e-01 -1.5473478e-01 1.9517844e-02
5.4047744e-01 -1.4205378e-01 1.7858178e-02
4.9053100e-01 -1.2887400e-01 1.6249400e-02
4.4487078e-01 -1.1519544e-01 1.4691511e-02
4.0349678e-01 -1.0101811e-01 1.3184511e-02
3.6640900e-01 -8.6342000e-02 1.1728400e-02
3.6640900e-01 -8.6342000e-02 1.1728400e-02
3.2650511e-01 -7.1238123e-02 1.3033133e-02
2.8900744e-01 -5.6681423e-02 1.4517833e-02
2.5391600e-01 -4.2671900e-02 1.6182500e-02
2.2123078e-01 -2.9209553e-02 1.8027133e-02
1.9095178e-01 -1.6294383e-02 2.0051733e-02
1.6307900e-01 -3.9263900e-03 2.2256300e-02
1.6307900e-01 -3.9263900e-03 2.2256300e-02
1.3922882e-01 3.3441611e-03 2.2747256e-02
1.1643322e-01 1.0600491e-02 2.3315856e-02
9.4692200e-02 1.7842600e-02 2.3962100e-02
7.4005756e-02 2.5070488e-02 2.4685989e-02
5.4373889e-02 3.2284154e-02 2.5487522e-02
3.5796600e-02 3.9483600e-02 2.6366700e-02
3.3047300e+00 1.4337900e+00 9.8812800e-02
3.2771833e+00 1.4164156e+00 1.0968633e-01
3.2456267e+00 1.3928822e+00 1.2389840e-01
3.2100600e+00 1.3631900e+00 1.4144900e-01
3.1704833e+00 1.3273389e+00 1.6233813e-01
3.1268967e+00 1.2853289e+00 1.8656580e-01
3.0793000e+00 1.2371600e+00 2.1413200e-01
3.0793000e+00 1.2371600e+00 2.1413200e-01
3.0415478e+00 1.2116089e+00 2.2862067e-01
3.0012478e+00 1.1857522e+00 2.4206500e-01
2.9584000e+00 1.1595900e+00 2.5446500e-01
2.9130044e+00 1.1331222e+00 2.6582067e-01
2.8650611e+00 1.1063489e+00 2.7613200e-01
2.8145700e+00 1.0792700e+00 2.8539900e-01
2.8145700e+00 1.0792700e+00 2.8539900e-01
2.7585200e+00 1.0512907e+00 2.9267078e-01
2.6977000e+00 1.0220733e+00 2.9635411e-01
2.6321100e+00 9.9161800e-01 2.9644900e-01
2.5617500e+00 9.5992467e-01 2.9295544e-01
2.4866200e+00 9.2699333e-01 2.8587344e-01
2.4067200e+00 8.9282400e-01 2.7520300e-01
2.4067200e+00 8.9282400e-01 2.7520300e-01
2.3372500e+00 8.5124889e-01 2.6251656e-01
2.2748833e+00 8.0794689e-01 2.5355422e-01
2.2196200e+00 7.6291800e-01 2.4831600e-01
2.1714600e+00 7.1616222e-01 2.4680189e-01
2.1304033e+00 6.6767956e-01 2.4901189e-01
2.0964500e+00 6.1747000e-01 2.5494600e-01
2.0964500e+00 6.1747000e-01 2.5494600e-01
2.0570800e+00 5.6986944e-01 2.5618711e-01
2.0163400e+00 5.2346778e-01 2.5469644e-01
1.9742300e+00 4.7826500e-01 2.5047400e-01
1.9307500e+00 4.3426111e-01 2.4351978e-01
1.8859000e+00 3.9145611e-01 2.3383378e-01
1.8396800e+00 3.4985000e-01 2.2141600e-01
1.8396800e+00 3.4985000e-01 2.2141600e-01
1.7944122e+00 3.0683408e-01 2.1119978e-01
1.7459189e+00 2.6416541e-01 1.9979511e-01
1.6942000e+00 2.2184400e-01 1.8720200e-01
1.6392556e+00 1.7986984e-01 1.7342044e-01
1.5810856e+00 1.3824294e-01 1.5845044e-01
1.5196900e+00 9.6963300e-02 1.4229200e-01
1.5196900e+00 9.6963300e-02 1.4229200e-01
1.4523100e+00 5.8056244e-02 1.2308947e-01
1.3811667e+00 2.3548464e-02 1.0312253e-01
1.3062600e+00 -6.5600400e-03 8.2391200e-02
1.2275900e+00 -3.2269269e-02 6.0895467e-02
1.1451567e+00 -5.3579222e-02 3.8635333e-02
1.0589600e+00 -7.0489900e-02 1.5610800e-02
1.0589600e+00 -7.0489900e-02 1.5610800e-02
9.6919689e-01 -7.9438533e-02 -4.8965889e-03
8.8242256e-01 -8.5149933e-02 -2.1295589e-02
7.9863700e-01 -8.7624100e-02 -3.3586200e-02
7.1784022e-01 -8.6861033e-02 -4.1768422e-02
6.4003222e-01 -8.2860733e-02 -4.5842256e-02
5.6521300e-01 -7.5623200e-02 -4.5807700e-02
5.6521300e-01 -7.5623200e-02 -4.5807700e-02
4.9865011e-01 -6.6631522e-02 -4.5599378e-02
4.3669978e-01 -5.6966989e-02 -4.4732111e-02
3.7936200e-01 -4.6629600e-02 -4.3205900e-02
3.2663678e-01 -3.5619356e-02 -4.1020744e-02
2.7852411e-01 -2.3936256e-02 -3.8176644e-02
2.3502400e-01 -1.1580300e-02 -3.4673600e-02
2.3502400e-01 -1.1580300e-02 -3.4673600e-02
1.9422063e-01 -5.7243778e-03 -2.6855717e-02
1.5482397e-01 -6.6589778e-04 -1.8462920e-02
1.1683400e-01 3.5951400e-03 -9.4952100e-03
8.0250733e-02 7.0587356e-03 4.7413333e-05
4.5074167e-02 9.7248889e-03 1.0164950e-02
1.1304300e-02 1.1593600e-02 2.0857400e-02
3.3044700e+00 1.4863200e+00 -1.2343600e-01
3.3388811e+00 1.4952478e+00 -1.0143427e-01
3.3711444e+00 1.4998111e+00 -8.0361967e-02
3.4012600e+00 1.5000100e+00 -6.0219100e-02
3.4292278e+00 1.4958444e+00 -4.1005667e-02
3.4550478e+00 1.4873144e+00 -2.2721667e-02
3.4787200e+00 1.4744200e+00 -5.3671000e-03
3.4787200e+00 1.4744200e+00 -5.3671000e-03
3.4970211e+00 1.4464956e+00 4.6729222e-03
3.5132578e+00 1.4162822e+00 1.0114922e-02
3.5274300e+00 1.3837800e+00 1.0958900e-02
3.5395378e+00 1.3489889e+00 7.2048556e-03
3.5495811e+00 1.3119089e+00 -1.1472111e-03
3.5575600e+00 1.2725400e+00 -1.4097300e-02
3.5575600e+00 1.2725400e+00 -1.4097300e-02
3.5644722e+00 1.2292422e+00 -2.5085600e-02
3.5699956e+00 1.1925589e+00 -3.4073000e-02
3.5741300e+00 1.1624900e+00 -4.1059500e-02
3.5768756e+00 1.1390356e+00 -4.6045100e-02
3.5782322e+00 1.1221956e+00 -4.9029800e-02
3.5782000e+00 1.1119700e+00 -5.0013600e-02
3.5782000e+00 1.1119700e+00 -5.0013600e-02
3.5826400e+00 1.1194400e+00 -4.4009489e-02
3.5887333e+00 1.1262833e+00 -3.7874822e-02
3.5964800e+00 1.1325000e+00 -3.1609600e-02
3.6058800e+00 1.1380900e+00 -2.5213822e-02
3.6169333e+00 1.1430533e+00 -1.8687489e-02
3.6296400e+00 1.1473900e+00 -1.2030600e-02
3.2512900e+00 1.4587200e+00 -3.7574100e-03
3.2642189e+00 1.4619233e+00 2.4630906e-02
3.2755389e+00 1.4621833e+00 4.8501909e-02
3.2852500e+00 1.4595000e+00 6.7855600e-02
3.2933522e+00 1.4538733e+00 8.2691979e-02
3.2998456e+00 1.4453033e+00 9.3011046e-02
3.3047300e+00 1.4337900e+00 9.8812800e-02
3.6908300e+00 5.8454200e-01 -1.3361900e-01
3.6404878e+00 5.2427378e-01 -1.2791196e-01
3.5873211e+00 4.6568444e-01 -1.1957829e-01
3.5313300e+00 4.0877400e-01 -1.0861800e-01
3.4725144e+00 3.5354244e-01 -9.5031089e-02
3.4108744e+00 2.9998978e-01 -7.8817556e-02
3.3464100e+00 2.4811600e-01 -5.9977400e-02
3.3464100e+00 2.4811600e-01 -5.9977400e-02
3.3067867e+00 2.1196387e-01 -4.7280100e-02
3.2649100e+00 1.7972920e-01 -3.2278733e-02
3.2207800e+00 1.5141200e-01 -1.4973300e-02
3.1743967e+00 1.2701227e-01 4.6362000e-03
3.1257600e+00 1.0653000e-01 2.6549767e-02
3.0748700e+00 8.9965200e-02 5.0767400e-02
3.0748700e+00 8.9965200e-02 5.0767400e-02
3.0167011e+00 7.2988478e-02 7.2874556e-02
2.9580978e+00 5.7728511e-02 9.1897422e-02
2.8990600e+00 4.4185300e-02 1.0783600e-01
2.8395878e+00 3.2358844e-02 1.2069029e-01
2.7796811e+00 2.2249144e-02 1.3046029e-01
2.7193400e+00 1.3856200e-02 1.3714600e-01
2.7193400e+00 1.3856200e-02 1.3714600e-01
2.6529678e+00 6.8791111e-03 1.3811346e-01
2.5869678e+00 9.9739778e-04 1.3604179e-01
2.5213400e+00 -3.7889400e-03 1.3093100e-01
2.4560844e+00 -7.4799022e-03 1.2278109e-01
2.3912011e+00 -1.0075489e-02 1.1159206e-01
2.3266900e+00 -1.1575700e-02 9.7363900e-02
2.3266900e+00 -1.1575700e-02 9.7363900e-02
2.2701211e+00 -9.3512111e-03 8.6218067e-02
2.2152178e+00 -6.0002644e-03 7.4814567e-02
2.1619800e+00 -1.5228600e-03 6.3153400e-02
2.1104078e+00 4.0810022e-03 5.1234567e-02
2.0605011e+00 1.0811322e-02 3.9058067e-02
2.0122600e+00 1.8668100e-02 2.6623900e-02
2.0122600e+00 1.8668100e-02 2.6623900e-02
1.9637500e+00 2.4941011e-02 1.2337978e-02
1.9150433e+00 3.1828311e-02 -2.0152222e-03
1.8661400e+00 3.9330000e-02 -1.6435700e-02
1.8170400e+00 4.7446078e-02 -3.0923456e-02
1.7677433e+00 5.6176544e-02 -4.5478489e-02
1.7182500e+00 6.5521400e-02 -6.0100800e-02
1.7182500e+00 6.5521400e-02 -6.0100800e-02
1.6711844e+00 7.3356000e-02 -7.3593722e-02
1.6217911e+00 8.2602067e-02 -8.5812222e-02
1.5700700e+00 9.3259600e-02 -9.6756300e-02
1.5160211e+00 1.0532860e-01 -1.0642596e-01
1.4596444e+00 1.1880907e-01 -1.1482119e-01
1.4009400e+00 1.3370100e-01 -1.2194200e-01
1.4009400e+00 1.3370100e-01 -1.2194200e-01
1.3367167e+00 1.5184967e-01 -1.2781378e-01
1.2717233e+00 1.6711267e-01 -1.3230411e-01
1.2059600e+00 1.7949000e-01 -1.3541300e-01
1.1394267e+00 1.8898167e-01 -1.3714044e-01
1.0721233e+00 1.9558767e-01 -1.3748644e-01
1.0040500e+00 1.9930800e-01 -1.3645100e-01
1.0040500e+00 1.9930800e-01 -1.3645100e-01
9.2962278e-01 2.0014022e-01 -1.3435361e-01
8.5780911e-01 1.9867489e-01 -1.2897461e-01
7.8860900e-01 1.9491200e-01 -1.2031400e-01
7.2202244e-01 1.8885156e-01 -1.0837178e-01
6.5804944e-01 1.8049356e-01 -9.3147944e-02
5.9669000e-01 1.6983800e-01 -7.4642500e-02
5.9669000e-01 1.6983800e-01 -7.4642500e-02
5.2948011e-01 1.6285460e-01 -4.1075022e-02
4.6483411e-01 1.5365027e-01 -9.8102222e-03
4.0275200e-01 1.4222500e-01 1.9151900e-02
3.4323378e-01 1.2857880e-01 4.5811344e-02
2.8627944e-01 1.1271167e-01 7.0168111e-02
2.3188900e-01 9.4623600e-02 9.2222200e-02
2.3188900e-01 9.4623600e-02 9.2222200e-02
2.0207331e-01 7.9467856e-02 7.9311681e-02
1.7025931e-01 6.2243122e-02 6.5256548e-02
1.3644700e-01 4.2949400e-02 5.0056800e-02
1.0063638e-01 2.1586689e-02 3.3712438e-02
6.2827444e-02 -1.8450111e-03 1.6223461e-02
2.3020200e-02 -2.7345700e-02 -2.4101300e-03
1.1092800e+01 6.7066300e-01 1.4298600e-01
1.1065200e+01 6.1073467e-01 1.6015856e-01
1.1036333e+01 5.5329933e-01 1.7685389e-01
1.1006200e+01 4.9835700e-01 1.9307200e-01
1.0974800e+01 4.4590767e-01 2.0881289e-01
1.0942133e+01 3.9595133e-01 2.2407656e-01
1.0908200e+01 3.4848800e-01 2.3886300e-01
1.0908200e+01 3.4848800e-01 2.3886300e-01
1.0876767e+01 3.1359456e-01 2.5110289e-01
1.0843667e+01 2.8763622e-01 2.6189356e-01
1.0808900e+01 2.7061300e-01 2.7123500e-01
1.0772467e+01 2.6252489e-01 2.7912722e-01
1.0734367e+01 2.6337189e-01 2.8557022e-01
1.0694600e+01 2.7315400e-01 2.9056400e-01
1.0694600e+01 2.7315400e-01 2.9056400e-01
1.0657744e+01 2.8050756e-01 2.9245967e-01
1.0618678e+01 2.8933922e-01 2.9434700e-01
1.0577400e+01 2.9964900e-01 2.9622600e-01
1.0533911e+01 3.1143689e-01 2.9809667e-01
1.0488211e+01 3.2470289e-01 2.9995900e-01
1.0440300e+01 3.3944700e-01 3.0181300e-01
1.0440300e+01 3.3944700e-01 3.0181300e-01
1.0375822e+01 3.6017922e-01 3.0858656e-01
1.0313589e+01 3.7088089e-01 3.1507956e-01
1.0253600e+01 3.7155200e-01 3.2129200e-01
1.0195856e+01 3.6219256e-01 3.2722389e-01
1.0140356e+01 3.4280256e-01 3.3287522e-01
1.0087100e+01 3.1338200e-01 3.3824600e-01
1.0087100e+01 3.1338200e-01 3.3824600e-01
1.0043447e+01 2.7804876e-01 3.3332278e-01
1.0002017e+01 2.4233109e-01 3.2526144e-01
9.9628100e+00 2.0622900e-01 3.1406200e-01
9.9258267e+00 1.6974249e-01 2.9972444e-01
9.8910667e+00 1.3287156e-01 2.8224878e-01
9.8585300e+00 9.5616200e-02 2.6163500e-01
9.8585300e+00 9.5616200e-02 2.6163500e-01
9.8224900e+00 1.3604433e-01 2.6559889e-01
9.7824233e+00 1.7435027e-01 2.6795789e-01
9.7383300e+00 2.1053400e-01 2.6871200e-01
9.6902100e+00 2.4459553e-01 2.6786122e-01
9.6380633e+00 2.7653487e-01 2.6540556e-01
9.5818900e+00 3.0635200e-01 2.6134500e-01
9.5818900e+00 3.0635200e-01 2.6134500e-01
9.5250767e+00 3.2792500e-01 2.4804544e-01
9.4700567e+00 3.4151300e-01 2.3164044e-01
9.4168300e+00 3.4711600e-01 2.1213000e-01
9.3653967e+00 3.4473400e-01 1.8951411e-01
9.3157567e+00 3.3436700e-01 1.6379278e-01
9.2679100e+00 3.1601500e-01 1.3496600e-01
9.2679100e+00 3.1601500e-01 1.3496600e-01
9.2217056e+00 2.8677833e-01 1.1328006e-01
9.1726089e+00 2.5744867e-01 9.0754191e-02
9.1206200e+00 2.2802600e-01 6.7388400e-02
9.0657389e+00 1.9851033e-01 4.3182684e-02
9.0079656e+00 1.6890167e-01 1.8137044e-02
8.9473000e+00 1.3920000e-01 -7.7485200e-03
8.9473000e+00 1.3920000e-01 -7.7485200e-03
8.8766856e+00 1.1485478e-01 -3.7732178e-02
8.8035122e+00 9.9289378e-02 -6.4097338e-02
8.7277800e+00 9.2503800e-02 -8.6844000e-02
8.6494889e+00 9.4498044e-02 -1.0597216e-01
8.5686389e+00 1.0527211e-01 -1.2148183e-01
8.4852300e+00 1.2482600e-01 -1.3337300e-01
8.4852300e+00 1.2482600e-01 -1.3337300e-01
8.4075644e+00 1.5713067e-01 -1.3533767e-01
8.3365178e+00 1.8885200e-01 -1.3668467e-01
8.2720900e+00 2.1999000e-01 -1.3741400e-01
8.2142811e+00 2.5054467e-01 -1.3752567e-01
8.1630911e+00 2.8051600e-01 -1.3701967e-01
8.1185200e+00 3.0990400e-01 -1.3589600e-01
8.2942300e+00 3.8064400e-01 -1.8991000e-01
8.2743144e+00 3.6208178e-01 -1.8330600e-01
8.2506511e+00 3.4622844e-01 -1.7574267e-01
8.2232400e+00 3.3308400e-01 -1.6722000e-01
8.1920811e+00 3.2264844e-01 -1.5773800e-01
8.1571744e+00 3.1492178e-01 -1.4729667e-01
8.1185200e+00 3.0990400e-01 -1.3589600e-01
1.0566300e+01 7.2405700e-01 1.7570100e-01
1.0530600e+01 7.0144911e-01 1.5442522e-01
1.0493567e+01 6.7803011e-01 1.3120356e-01
1.0455200e+01 6.5380000e-01 1.0603600e-01
1.0415500e+01 6.2875878e-01 7.8922556e-02
1.0374467e+01 6.0290644e-01 4.9863222e-02
1.0332100e+01 5.7624300e-01 1.8858000e-02
1.0332100e+01 5.7624300e-01 1.8858000e-02
1.0288033e+01 5.4014533e-01 -1.4050433e-02
1.0245067e+01 5.0570033e-01 -3.8417133e-02
1.0203200e+01 4.7290800e-01 -5.4242100e-02
1.0162433e+01 4.4176833e-01 -6.1525333e-02
1.0122767e+01 4.1228133e-01 -6.0266833e-02
1.0084200e+01 3.8444700e-01 -5.0466600e-02
1.0084200e+01 3.8444700e-01 -5.0466600e-02
1.0032479e+01 3.8088356e-01 -1.3007556e-02
9.9781722e+00 3.8021656e-01 2.3367844e-02
9.9212800e+00 3.8244600e-01 5.8659600e-02
9.8618022e+00 3.8757189e-01 9.2867711e-02
9.7997389e+00 3.9559422e-01 1.2599218e-01
9.7350900e+00 4.0651300e-01 1.5803300e-01
9.7350900e+00 4.0651300e-01 1.5803300e-01
9.6715000e+00 4.1407722e-01 1.8673878e-01
9.6044967e+00 4.1824289e-01 2.1315511e-01
9.5340800e+00 4.1901000e-01 2.3728200e-01
9.4602500e+00 4.1637856e-01 2.5911944e-01
9.3830067e+00 4.1034856e-01 2.7866744e-01
9.3023500e+00 4.0092000e-01 2.9592600e-01
9.3023500e+00 4.0092000e-01 2.9592600e-01
9.2121967e+00 3.7282567e-01 2.7093620e-01
9.1189967e+00 3.5353033e-01 2.3592087e-01
9.0227500e+00 3.4303400e-01 1.9088000e-01
8.9234567e+00 3.4133667e-01 1.3581360e-01
8.8211167e+00 3.4843833e-01 7.0721661e-02
8.7157300e+00 3.6433900e-01 -4.3958100e-03
8.7157300e+00 3.6433900e-01 -4.3958100e-03
8.6232022e+00 3.7850289e-01 -5.9283228e-02
8.5395856e+00 3.8808822e-01 -1.0458329e-01
8.4648800e+00 3.9309500e-01 -1.4029600e-01
8.3990856e+00 3.9352322e-01 -1.6642135e-01
8.3422022e+00 3.8937289e-01 -1.8295935e-01
8.2942300e+00 3.8064400e-01 -1.8991000e-01
6.1875900e+00 7.5465100e-01 -1.6716700e-01
6.2369067e+00 7.0972400e-01 -1.5356456e-01
6.2950200e+00 6.6532433e-01 -1.4366822e-01
6.3619300e+00 6.2145200e-01 -1.3747800e-01
6.4376367e+00 5.7810700e-01 -1.3499389e-01
6.5221400e+00 5.3528933e-01 -1.3621589e-01
6.6154400e+00 4.9299900e-01 -1.4114400e-01
6.6154400e+00 4.9299900e-01 -1.4114400e-01
6.7222089e+00 4.7601867e-01 -1.4067333e-01
6.8321722e+00 4.6877567e-01 -1.3839567e-01
6.9453300e+00 4.7127000e-01 -1.3431100e-01
7.0616822e+00 4.8350167e-01 -1.2841933e-01
7.1812289e+00 5.0547067e-01 -1.2072067e-01
7.3039700e+00 5.3717700e-01 -1.1121500e-01
7.3039700e+00 5.3717700e-01 -1.1121500e-01
7.4165700e+00 5.7231933e-01 -1.0953911e-01
7.5262300e+00 5.9827567e-01 -1.0986911e-01
7.6329500e+00 6.1504600e-01 -1.1220500e-01
7.7367300e+00 6.2263033e-01 -1.1654678e-01
7.8375700e+00 6.2102867e-01 -1.2289444e-01
7.9354700e+00 6.1024100e-01 -1.3124800e-01
7.9354700e+00 6.1024100e-01 -1.3124800e-01
8.0166744e+00 5.7543178e-01 -1.4292722e-01
8.0893144e+00 5.3923978e-01 -1.5384556e-01
8.1533900e+00 5.0166500e-01 -1.6400300e-01
8.2089011e+00 4.6270744e-01 -1.7339956e-01
8.2558478e+00 4.2236711e-01 -1.8203522e-01
8.2942300e+00 3.8064400e-01 -1.8991000e-01