# vtk DataFile Version 2.0
test
ASCII
DATASET POLYDATA
POINTS 4361 float
3.9840082e+00 6.6843715e+00 1.1861306e+01
4.0873294e+00 6.7508858e+00 1.1731471e+01
4.1929950e+00 6.8171793e+00 1.1603587e+01
4.3010050e+00 6.8832521e+00 1.1477655e+01
4.4113595e+00 6.9491040e+00 1.1353675e+01
4.5240585e+00 7.0147351e+00 1.1231646e+01
4.6391018e+00 7.0801454e+00 1.1111569e+01
4.6391018e+00 7.0801454e+00 1.1111569e+01
4.7591191e+00 7.1484246e+00 1.0995555e+01
4.8859006e+00 7.2156763e+00 1.0888938e+01
5.0194465e+00 7.2819005e+00 1.0791721e+01
5.1597566e+00 7.3470972e+00 1.0703901e+01
5.3068310e+00 7.4112664e+00 1.0625480e+01
5.4606696e+00 7.4744081e+00 1.0556457e+01
5.4606696e+00 7.4744081e+00 1.0556457e+01
5.6237769e+00 7.5338430e+00 1.0507162e+01
5.7892450e+00 7.5900199e+00 1.0471084e+01
5.9570740e+00 7.6429390e+00 1.0448224e+01
6.1272638e+00 7.6926002e+00 1.0438581e+01
6.2998145e+00 7.7390036e+00 1.0442155e+01
6.4747261e+00 7.7821490e+00 1.0458946e+01
6.4747261e+00 7.7821490e+00 1.0458946e+01
6.6480823e+00 7.8208441e+00 1.0481968e+01
6.8212907e+00 7.8566625e+00 1.0508777e+01
6.9943512e+00 7.8896043e+00 1.0539372e+01
7.1672639e+00 7.9196694e+00 1.0573755e+01
7.3400286e+00 7.9468579e+00 1.0611924e+01
7.5126456e+00 7.9711697e+00 1.0653881e+01
7.5126456e+00 7.9711697e+00 1.0653881e+01
7.6854739e+00 7.9931208e+00 1.0696164e+01
7.8592377e+00 8.0125898e+00 1.0734519e+01
8.0339372e+00 8.0295768e+00 1.0768946e+01
8.2095723e+00 8.0440816e+00 1.0799446e+01
8.3861430e+00 8.0561044e+00 1.0826017e+01
8.5636493e+00 8.0656451e+00 1.0848660e+01
8.5636493e+00 8.0656451e+00 1.0848660e+01
8.7439169e+00 8.0722634e+00 1.0862472e+01
8.9225705e+00 8.0762665e+00 1.0862712e+01
9.0996104e+00 8.0776545e+00 1.0849382e+01
9.2750364e+00 8.0764273e+00 1.0822480e+01
9.4488485e+00 8.0725850e+00 1.0782007e+01
9.6210468e+00 8.0661274e+00 1.0727963e+01
9.6210468e+00 8.0661274e+00 1.0727963e+01
9.7859477e+00 8.0569853e+00 1.0655410e+01
9.9432658e+00 8.0467806e+00 1.0571803e+01
1.0093001e+01 8.0355132e+00 1.0477144e+01
1.0235153e+01 8.0231832e+00 1.0371431e+01
1.0369723e+01 8.0097906e+00 1.0254664e+01
1.0496710e+01 7.9953353e+00 1.0126844e+01
1.0496710e+01 7.9953353e+00 1.0126844e+01
1.0614396e+01 7.9862120e+00 9.9922932e+00
1.0729833e+01 7.9761212e+00 9.8559890e+00
1.0843023e+01 7.9650631e+00 9.7179314e+00
1.0953964e+01 7.9530375e+00 9.5781206e+00
1.1062657e+01 7.9400445e+00 9.4365565e+00
1.1169103e+01 7.9260841e+00 9.2932391e+00
1.1169103e+01 7.9260841e+00 9.2932391e+00
1.1070177e+01 7.8596199e+00 9.1530831e+00
1.0972071e+01 7.7916994e+00 9.0130857e+00
1.0874784e+01 7.7223223e+00 8.8732470e+00
1.0778318e+01 7.6514888e+00 8.7335670e+00
1.0682671e+01 7.5791989e+00 8.5940455e+00
1.0587844e+01 7.5054525e+00 8.4546827e+00
1.0587844e+01 7.5054525e+00 8.4546827e+00
1.0494911e+01 7.4362294e+00 8.3114644e+00
1.0406390e+01 7.3657881e+00 8.1664344e+00
1.0322281e+01 7.2941288e+00 8.0195930e+00
1.0242583e+01 7.2212514e+00 7.8709401e+00
1.0167297e+01 7.1471558e+00 7.7204756e+00
1.0096423e+01 7.0718422e+00 7.5681997e+00
1.0096423e+01 7.0718422e+00 7.5681997e+00
1.0032643e+01 6.9948796e+00 7.4128528e+00
9.9776085e+00 6.9158091e+00 7.2563391e+00
9.9313185e+00 6.8346306e+00 7.0986588e+00
9.8937734e+00 6.7513441e+00 6.9398117e+00
9.8649733e+00 6.6659496e+00 6.7797979e+00
9.8449181e+00 6.5784471e+00 6.6186173e+00
9.8449181e+00 6.5784471e+00 6.6186173e+00
9.8368563e+00 6.4888719e+00 6.4574673e+00
9.8391875e+00 6.3980588e+00 6.2981895e+00
9.8519118e+00 6.3060077e+00 6.1407840e+00
9.8750291e+00 6.2127186e+00 5.9852508e+00
9.9085395e+00 6.1181915e+00 5.8315899e+00
9.9524429e+00 6.0224264e+00 5.6798013e+00
9.9524429e+00 6.0224264e+00 5.6798013e+00
1.0004573e+01 5.9262444e+00 5.5319046e+00
1.0062354e+01 5.8293906e+00 5.3871596e+00
1.0125786e+01 5.7318650e+00 5.2455662e+00
1.0194869e+01 5.6336674e+00 5.1071244e+00
1.0269603e+01 5.5347980e+00 4.9718343e+00
1.0349988e+01 5.4352568e+00 4.8396958e+00
1.0349988e+01 5.4352568e+00 4.8396958e+00
1.0433351e+01 5.3355234e+00 4.7101077e+00
1.0518279e+01 5.2347859e+00 4.5824305e+00
1.0604773e+01 5.1330443e+00 4.4566642e+00
1.0692831e+01 5.0302984e+00 4.3328088e+00
1.0782454e+01 4.9265485e+00 4.2108643e+00
1.0873643e+01 4.8217943e+00 4.0908306e+00
1.0873643e+01 4.8217943e+00 4.0908306e+00
1.0964461e+01 4.7150957e+00 3.9723253e+00
1.1053368e+01 4.6061311e+00 3.8544974e+00
1.1140363e+01 4.4949006e+00 3.7373468e+00
1.1225447e+01 4.3814041e+00 3.6208737e+00
1.1308620e+01 4.2656416e+00 3.5050779e+00
1.1389881e+01 4.1476133e+00 3.3899596e+00
1.1389881e+01 4.1476133e+00 3.3899596e+00
1.1467406e+01 4.0267439e+00 3.2746432e+00
1.1538691e+01 3.9028260e+00 3.1593836e+00
1.1603736e+01 3.7758594e+00 3.0441807e+00
1.1662540e+01 3.6458442e+00 2.9290344e+00
1.1715105e+01 3.5127804e+00 2.8139449e+00
1.1761430e+01 3.3766679e+00 2.6989121e+00
1.1761430e+01 3.3766679e+00 2.6989121e+00
1.1799618e+01 3.2365647e+00 2.5845824e+00
1.1827710e+01 3.0946862e+00 2.4713456e+00
1.1845706e+01 2.9510326e+00 2.3592017e+00
1.1853605e+01 2.8056037e+00 2.2481507e+00
1.1851407e+01 2.6583995e+00 2.1381926e+00
1.1839113e+01 2.5094202e+00 2.0293273e+00
1.1839113e+01 2.5094202e+00 2.0293273e+00
1.1814659e+01 2.3614532e+00 1.9214861e+00
1.1781787e+01 2.2144381e+00 1.8159381e+00
1.1740498e+01 2.0683750e+00 1.7126834e+00
1.1690790e+01 1.9232638e+00 1.6117221e+00
1.1632665e+01 1.7791045e+00 1.5130540e+00
1.1566123e+01 1.6358972e+00 1.4166792e+00
1.1566123e+01 1.6358972e+00 1.4166792e+00
1.1492392e+01 1.4949253e+00 1.3231848e+00
1.1414599e+01 1.3551861e+00 1.2316093e+00
1.1332745e+01 1.2166796e+00 1.1419527e+00
1.1246830e+01 1.0794059e+00 1.0542150e+00
1.1156854e+01 9.4336503e-01 9.6839629e-01
1.1062816e+01 8.0855689e-01 8.8449647e-01
1.1062816e+01 8.0855689e-01 8.8449647e-01
1.0967519e+01 6.7369238e-01 8.0221054e-01
1.0871275e+01 5.3917496e-01 7.2049756e-01
1.0774083e+01 4.0500464e-01 6.3935754e-01
1.0675944e+01 2.7118141e-01 5.5879047e-01
1.0576856e+01 1.3770527e-01 4.7879635e-01
1.0476821e+01 4.5762200e-03 3.9937518e-01
1.8226950e+00 5.5142601e+00 1.1688938e+01
1.7943136e+00 5.4751260e+00 1.1503141e+01
1.7674176e+00 5.4341395e+00 1.1317589e+01
1.7420068e+00 5.3913005e+00 1.1132280e+01
1.7180813e+00 5.3466092e+00 1.0947215e+01
1.6956411e+00 5.3000654e+00 1.0762395e+01
1.6746862e+00 5.2516693e+00 1.0577819e+01
1.6746862e+00 5.2516693e+00 1.0577819e+01
1.6599112e+00 5.2068807e+00 1.0391199e+01
1.6525929e+00 5.1600446e+00 1.0205342e+01
1.6527316e+00 5.1111611e+00 1.0020249e+01
1.6603271e+00 5.0602301e+00 9.8359182e+00
1.6753794e+00 5.0072517e+00 9.6523508e+00
1.6978886e+00 4.9522259e+00 9.4695466e+00
1.6978886e+00 4.9522259e+00 9.4695466e+00
1.7336576e+00 4.8931432e+00 9.2891048e+00
1.7803753e+00 4.8313399e+00 9.1139751e+00
1.8380416e+00 4.7668160e+00 8.9441575e+00
1.9066565e+00 4.6995714e+00 8.7796519e+00
1.9862200e+00 4.6296063e+00 8.6204583e+00
2.0767322e+00 4.5569205e+00 8.4665768e+00
2.0767322e+00 4.5569205e+00 8.4665768e+00
2.1795248e+00 4.4817293e+00 8.3222848e+00
2.2898675e+00 4.4052049e+00 8.1861737e+00
2.4077606e+00 4.3273473e+00 8.0582435e+00
2.5332039e+00 4.2481564e+00 7.9384941e+00
2.6661975e+00 4.1676322e+00 7.8269256e+00
2.8067413e+00 4.0857747e+00 7.7235380e+00
2.8067413e+00 4.0857747e+00 7.7235380e+00
2.9483426e+00 4.0036054e+00 7.6242651e+00
3.0909329e+00 3.9200721e+00 7.5278260e+00
3.2345122e+00 3.8351747e+00 7.4342209e+00
3.3790806e+00 3.7489132e+00 7.3434496e+00
3.5246380e+00 3.6612877e+00 7.2555122e+00
3.6711845e+00 3.5722981e+00 7.1704087e+00
3.6711845e+00 3.5722981e+00 7.1704087e+00
3.8181424e+00 3.4813560e+00 7.0878042e+00
3.9625577e+00 3.3877416e+00 7.0040828e+00
4.1044302e+00 3.2914547e+00 6.9192447e+00
4.2437601e+00 3.1924953e+00 6.8332897e+00
4.3805474e+00 3.0908635e+00 6.7462179e+00
4.5147919e+00 2.9865592e+00 6.6580292e+00
4.5147919e+00 2.9865592e+00 6.6580292e+00
4.6448647e+00 2.8788123e+00 6.5659558e+00
4.7665923e+00 2.7673667e+00 6.4692160e+00
4.8799748e+00 2.6522224e+00 6.3678098e+00
4.9850121e+00 2.5333794e+00 6.2617372e+00
5.0817042e+00 2.4108378e+00 6.1509982e+00
5.1700512e+00 2.2845975e+00 6.0355928e+00
5.1700512e+00 2.2845975e+00 6.0355928e+00
5.2432895e+00 2.1540593e+00 5.9133006e+00
5.3036224e+00 2.0229589e+00 5.7874926e+00
5.3510498e+00 1.8912962e+00 5.6581690e+00
5.3855718e+00 1.7590714e+00 5.5253296e+00
5.4071884e+00 1.6262845e+00 5.3889744e+00
5.4158996e+00 1.4929353e+00 5.2491036e+00
5.4158996e+00 1.4929353e+00 5.2491036e+00
5.4127848e+00 1.3627351e+00 5.1074172e+00
5.4023860e+00 1.2340022e+00 4.9654513e+00
5.3847031e+00 1.1067366e+00 4.8232058e+00
5.3597362e+00 9.8093836e-01 4.6806808e+00
5.3274852e+00 8.5660743e-01 4.5378762e+00
5.2879502e+00 7.3374382e-01 4.3947921e+00
5.2879502e+00 7.3374382e-01 4.3947921e+00
5.2454348e+00 6.1071041e-01 4.2535219e+00
5.2011999e+00 4.8805034e-01 4.1124073e+00
5.1552455e+00 3.6576359e-01 3.9714483e+00
5.1075715e+00 2.4385018e-01 3.8306449e+00
5.0581780e+00 1.2231010e-01 3.6899972e+00
5.0070649e+00 1.1433500e-03 3.5495051e+00
6.0468500e-01 5.3012614e+00 1.3910298e+01
6.6361779e-01 5.4058655e+00 1.3754934e+01
7.3550981e-01 5.5107871e+00 1.3609528e+01
8.2036107e-01 5.6160262e+00 1.3474079e+01
9.1817156e-01 5.7215829e+00 1.3348587e+01
1.0289413e+00 5.8274571e+00 1.3233052e+01
1.1526702e+00 5.9336489e+00 1.3127474e+01
1.1526702e+00 5.9336489e+00 1.3127474e+01
1.3098587e+00 6.0306337e+00 1.3065201e+01
1.4737226e+00 6.1180868e+00 1.3017964e+01
1.6442620e+00 6.1960084e+00 1.2985764e+01
1.8214768e+00 6.2643983e+00 1.2968601e+01
2.0053672e+00 6.3232567e+00 1.2966474e+01
2.1959330e+00 6.3725834e+00 1.2979383e+01
2.1959330e+00 6.3725834e+00 1.2979383e+01
2.3878314e+00 6.4163602e+00 1.2991772e+01
2.5764293e+00 6.4567250e+00 1.2985561e+01
2.7617268e+00 6.4936779e+00 1.2960751e+01
2.9437238e+00 6.5272188e+00 1.2917343e+01
3.1224204e+00 6.5573478e+00 1.2855335e+01
3.2978165e+00 6.5840648e+00 1.2774728e+01
3.2978165e+00 6.5840648e+00 1.2774728e+01
3.4430070e+00 6.6073163e+00 1.2647654e+01
3.5758674e+00 6.6279544e+00 1.2510514e+01
3.6963977e+00 6.6459789e+00 1.2363309e+01
3.8045980e+00 6.6613899e+00 1.2206040e+01
[...]
POINT_DATA 4361
VECTORS U float
6.8710600e-01 2.2152300e-01 -5.9509800e-03
6.9459156e-01 2.1654122e-01 -2.0922611e-03
7.0178622e-01 2.1101589e-01 1.3987689e-03
7.0869000e-01 2.0494700e-01 4.5221100e-03
7.1530289e-01 1.9833456e-01 7.2777622e-03
7.2162489e-01 1.9117856e-01 9.6657256e-03
7.2765600e-01 1.8347900e-01 1.1686000e-02
7.2765600e-01 1.8347900e-01 1.1686000e-02
7.3248344e-01 1.7745044e-01 1.3546744e-02
7.3688478e-01 1.7086211e-01 1.4680378e-02
7.4086000e-01 1.6371400e-01 1.5086900e-02
7.4440911e-01 1.5600611e-01 1.4766311e-02
7.4753211e-01 1.4773844e-01 1.3718611e-02
7.5022900e-01 1.3891100e-01 1.1943800e-02
7.5022900e-01 1.3891100e-01 1.1943800e-02
7.5369556e-01 1.2907727e-01 1.1350567e-02
7.5677656e-01 1.1984860e-01 1.1201767e-02
7.5947200e-01 1.1122500e-01 1.1497400e-02
7.6178189e-01 1.0320647e-01 1.2237467e-02
7.6370622e-01 9.5793000e-02 1.3421967e-02
7.6524500e-01 8.8984600e-02 1.5050900e-02
7.6524500e-01 8.8984600e-02 1.5050900e-02
7.6665222e-01 8.2332433e-02 1.4644456e-02
7.6785622e-01 7.6195600e-02 1.4349356e-02
7.6885700e-01 7.0574100e-02 1.4165600e-02
7.6965456e-01 6.5467933e-02 1.4093189e-02
7.7024889e-01 6.0877100e-02 1.4132122e-02
7.7064000e-01 5.6801600e-02 1.4282400e-02
7.7064000e-01 5.6801600e-02 1.4282400e-02
7.7079178e-01 5.2988367e-02 1.4919978e-02
7.7087811e-01 4.9449400e-02 1.5681644e-02
7.7089900e-01 4.6184700e-02 1.6567400e-02
7.7085444e-01 4.3194267e-02 1.7577244e-02
7.7074444e-01 4.0478100e-02 1.8711178e-02
7.7056900e-01 3.8036200e-02 1.9969200e-02
7.7056900e-01 3.8036200e-02 1.9969200e-02
7.7044867e-01 3.5528756e-02 2.1118200e-02
7.7027933e-01 3.3419956e-02 2.1889933e-02
7.7006100e-01 3.1709800e-02 2.2284400e-02
7.6979367e-01 3.0398289e-02 2.2301600e-02
7.6947733e-01 2.9485422e-02 2.1941533e-02
7.6911200e-01 2.8971200e-02 2.1204200e-02
7.6911200e-01 2.8971200e-02 2.1204200e-02
7.6894200e-01 2.8927644e-02 2.0863014e-02
7.6801933e-01 2.9450411e-02 1.9722214e-02
7.6634400e-01 3.0539500e-02 1.7781800e-02
7.6391600e-01 3.2194911e-02 1.5041771e-02
7.6073533e-01 3.4416644e-02 1.1502128e-02
7.5680200e-01 3.7204700e-02 7.1628700e-03
7.5680200e-01 3.7204700e-02 7.1628700e-03
7.4987644e-01 4.5758033e-02 2.6809444e-04
7.4334211e-01 5.3643567e-02 -6.0620956e-03
7.3719900e-01 6.0861300e-02 -1.1827700e-02
7.3144711e-01 6.7411233e-02 -1.7028719e-02
7.2608644e-01 7.3293367e-02 -2.1665152e-02
7.2111700e-01 7.8507700e-02 -2.5737000e-02
7.2111700e-01 7.8507700e-02 -2.5737000e-02
7.1705267e-01 7.5691456e-02 -2.1653111e-02
7.1246567e-01 7.1933389e-02 -1.6801411e-02
7.0735600e-01 6.7233500e-02 -1.1181900e-02
7.0172367e-01 6.1591789e-02 -4.7945778e-03
6.9556867e-01 5.5008256e-02 2.3605556e-03
6.8889100e-01 4.7482900e-02 1.0283500e-02
6.8889100e-01 4.7482900e-02 1.0283500e-02
6.8159133e-01 4.5531756e-02 1.5687067e-02
6.7393500e-01 4.3921156e-02 2.0837967e-02
6.6592200e-01 4.2651100e-02 2.5736200e-02
6.5755233e-01 4.1721589e-02 3.0381767e-02
6.4882600e-01 4.1132622e-02 3.4774667e-02
6.3974300e-01 4.0884200e-02 3.8914900e-02
6.3974300e-01 4.0884200e-02 3.8914900e-02
6.3068044e-01 4.1272389e-02 4.2265478e-02
6.2106278e-01 4.1592689e-02 4.5198011e-02
6.1089000e-01 4.1845100e-02 4.7712500e-02
6.0016211e-01 4.2029622e-02 4.9808944e-02
5.8887911e-01 4.2146256e-02 5.1487344e-02
5.7704100e-01 4.2195000e-02 5.2747700e-02
5.7704100e-01 4.2195000e-02 5.2747700e-02
5.6482111e-01 4.2081511e-02 5.3299044e-02
5.5311511e-01 4.1707578e-02 5.3335778e-02
5.4192300e-01 4.1073200e-02 5.2857900e-02
5.3124478e-01 4.0178378e-02 5.1865411e-02
5.2108044e-01 3.9023111e-02 5.0358311e-02
5.1143000e-01 3.7607400e-02 4.8336600e-02
5.1143000e-01 3.7607400e-02 4.8336600e-02
5.0186256e-01 3.5877433e-02 4.6129533e-02
4.9257422e-01 3.3868800e-02 4.3896667e-02
4.8356500e-01 3.1581500e-02 4.1638000e-02
4.7483489e-01 2.9015533e-02 3.9353533e-02
4.6638389e-01 2.6170900e-02 3.7043267e-02
4.5821200e-01 2.3047600e-02 3.4707200e-02
4.5821200e-01 2.3047600e-02 3.4707200e-02
4.5015222e-01 2.0154694e-02 3.2111267e-02
4.4214356e-01 1.7265961e-02 2.9430400e-02
4.3418600e-01 1.4381400e-02 2.6664600e-02
4.2627956e-01 1.1501011e-02 2.3813867e-02
4.1842422e-01 8.6247944e-03 2.0878200e-02
4.1062000e-01 5.7527500e-03 1.7857600e-02
4.1062000e-01 5.7527500e-03 1.7857600e-02
4.0244933e-01 2.3827389e-03 1.5093062e-02
3.9388900e-01 -1.1493178e-03 1.2264462e-02
3.8493900e-01 -4.8434200e-03 9.3718000e-03
3.7559933e-01 -8.6995678e-03 6.4150758e-03
3.6587000e-01 -1.2717761e-02 3.3942894e-03
3.5575100e-01 -1.6898000e-02 3.0944100e-04
3.5575100e-01 -1.6898000e-02 3.0944100e-04
3.4477011e-01 -2.1086044e-02 -3.0264272e-03
3.3293011e-01 -2.5136378e-02 -6.2764376e-03
3.2023100e-01 -2.9049000e-02 -9.4405900e-03
3.0667278e-01 -3.2823911e-02 -1.2518885e-02
2.9225544e-01 -3.6461111e-02 -1.5511321e-02
2.7697900e-01 -3.9960600e-02 -1.8417900e-02
2.7697900e-01 -3.9960600e-02 -1.8417900e-02
2.6171989e-01 -4.3416989e-02 -2.0182100e-02
2.4625222e-01 -4.6184522e-02 -2.1493500e-02
2.3057600e-01 -4.8263200e-02 -2.2352100e-02
2.1469122e-01 -4.9653022e-02 -2.2757900e-02
1.9859789e-01 -5.0353989e-02 -2.2710900e-02
1.8229600e-01 -5.0366100e-02 -2.2211100e-02
1.8229600e-01 -5.0366100e-02 -2.2211100e-02
1.6621614e-01 -4.8423722e-02 -2.2456689e-02
1.5102248e-01 -4.6037922e-02 -2.2504722e-02
1.3671500e-01 -4.3208700e-02 -2.2355200e-02
1.2329371e-01 -3.9936056e-02 -2.2008122e-02
1.1075861e-01 -3.6219989e-02 -2.1463489e-02
9.9109700e-02 -3.2060500e-02 -2.0721300e-02
9.9109700e-02 -3.2060500e-02 -2.0721300e-02
8.7346933e-02 -2.7656591e-02 -1.9639122e-02
7.6291733e-02 -2.3380558e-02 -1.8371022e-02
6.5944100e-02 -1.9232400e-02 -1.6917000e-02
5.6304033e-02 -1.5212118e-02 -1.5277056e-02
4.7371533e-02 -1.1319711e-02 -1.3451189e-02
3.9146600e-02 -7.5551800e-03 -1.1439400e-02
3.9146600e-02 -7.5551800e-03 -1.1439400e-02
3.2178863e-02 -5.0452717e-03 -9.0204000e-03
2.5605797e-02 -2.7305667e-03 -6.6132833e-03
1.9427400e-02 -6.1106500e-04 -4.2180500e-03
1.3643673e-02 1.3132333e-03 -1.8347000e-03
8.2546167e-03 3.0423283e-03 5.3676667e-04
3.2602300e-03 4.5762200e-03 2.8963500e-03
6.0457500e-01 3.0274800e-01 4.4383100e-02
5.9878056e-01 2.9984511e-01 4.6107044e-02
5.9217122e-01 2.9567611e-01 4.8155744e-02
5.8474700e-01 2.9024100e-01 5.0529200e-02
5.7650789e-01 2.8353978e-01 5.3227411e-02
5.6745389e-01 2.7557244e-01 5.6250378e-02
5.5758500e-01 2.6633900e-01 5.9598100e-02
5.5758500e-01 2.6633900e-01 5.9598100e-02
5.4940378e-01 2.6191756e-01 6.1505733e-02
5.4071778e-01 2.5729722e-01 6.3121400e-02
5.3152700e-01 2.5247800e-01 6.4445100e-02
5.2183144e-01 2.4745989e-01 6.5476833e-02
5.1163111e-01 2.4224289e-01 6.6216600e-02
5.0092600e-01 2.3682700e-01 6.6664400e-02
5.0092600e-01 2.3682700e-01 6.6664400e-02
4.9073533e-01 2.3015444e-01 6.7026800e-02
4.7985800e-01 2.2295411e-01 6.6653833e-02
4.6829400e-01 2.1522600e-01 6.5545500e-02
4.5604333e-01 2.0697011e-01 6.3701800e-02
4.4310600e-01 1.9818644e-01 6.1122733e-02
4.2948200e-01 1.8887500e-01 5.7808300e-02
4.2948200e-01 1.8887500e-01 5.7808300e-02
4.1724522e-01 1.7861544e-01 5.4106378e-02
4.0644756e-01 1.6832111e-01 5.1439711e-02
3.9708900e-01 1.5799200e-01 4.9808300e-02
3.8916956e-01 1.4762811e-01 4.9212144e-02
3.8268922e-01 1.3722944e-01 4.9651244e-02
3.7764800e-01 1.2679600e-01 5.1125600e-02
3.7764800e-01 1.2679600e-01 5.1125600e-02
3.7133711e-01 1.1704178e-01 5.1221367e-02
3.6492478e-01 1.0757121e-01 5.0998300e-02
3.5841100e-01 9.8384300e-02 5.0456400e-02
3.5179578e-01 8.9481044e-02 4.9595667e-02
3.4507911e-01 8.0861444e-02 4.8416100e-02
3.3826100e-01 7.2525500e-02 4.6917700e-02
3.3826100e-01 7.2525500e-02 4.6917700e-02
3.3235989e-01 6.4283944e-02 4.6837489e-02
3.2612856e-01 5.6264778e-02 4.6394622e-02
3.1956700e-01 4.8468000e-02 4.5589100e-02
3.1267522e-01 4.0893611e-02 4.4420922e-02
3.0545322e-01 3.3541611e-02 4.2890089e-02
2.9790100e-01 2.6412000e-02 4.0996600e-02
2.9790100e-01 2.6412000e-02 4.0996600e-02
2.8972700e-01 1.9799859e-02 3.8097211e-02
2.8063233e-01 1.3507922e-02 3.4869378e-02
2.7061700e-01 7.5361900e-03 3.1313100e-02
2.5968100e-01 1.8846622e-03 2.7428378e-02
2.4782433e-01 -3.4466611e-03 2.3215211e-02
2.3504700e-01 -8.4577800e-03 1.8673600e-02
2.3504700e-01 -8.4577800e-03 1.8673600e-02
2.1957856e-01 -1.3151867e-02 1.3963094e-02
2.0376622e-01 -1.6850907e-02 9.8041611e-03
1.8761000e-01 -1.9554900e-02 6.1968000e-03
1.7110989e-01 -2.1263847e-02 3.1410111e-03
1.5426589e-01 -2.1977747e-02 6.3679444e-04
1.3707800e-01 -2.1696600e-02 -1.3158500e-03
1.3707800e-01 -2.1696600e-02 -1.3158500e-03
1.2115786e-01 -1.9656429e-02 -3.3807367e-03
1.0607722e-01 -1.7341862e-02 -5.0162833e-03
9.1836100e-02 -1.4752900e-02 -6.2224900e-03
7.8434489e-02 -1.1889542e-02 -6.9993567e-03
6.5872389e-02 -8.7517889e-03 -7.3468833e-03
5.4149800e-02 -5.3396400e-03 -7.2650700e-03
5.4149800e-02 -5.3396400e-03 -7.2650700e-03
4.3856599e-02 -3.6356894e-03 -5.7965411e-03
3.4135032e-02 -2.1811198e-03 -4.2337778e-03
2.4985100e-02 -9.7593100e-04 -2.5767800e-03
1.6406802e-02 -2.0123111e-05 -8.2554778e-04
8.4001383e-03 6.8630389e-04 1.0199189e-03
9.6510900e-04 1.1433500e-03 2.9596200e-03
6.0468500e-01 3.3155700e-01 -9.4851300e-03
6.1292033e-01 3.3308689e-01 -5.4616611e-03
6.2075200e-01 3.3349889e-01 -1.6243244e-03
6.2818000e-01 3.3279300e-01 2.0268800e-03
6.3520433e-01 3.3096922e-01 5.4919522e-03
6.4182500e-01 3.2802756e-01 8.7708922e-03
6.4804200e-01 3.2396800e-01 1.1863700e-02
6.4804200e-01 3.2396800e-01 1.1863700e-02
6.5343678e-01 3.1648878e-01 1.3651564e-02
6.5842011e-01 3.0826644e-01 1.4396631e-02
6.6299200e-01 2.9930100e-01 1.4098900e-02
6.6715244e-01 2.8959244e-01 1.2758371e-02
6.7090144e-01 2.7914078e-01 1.0375044e-02
6.7423900e-01 2.6794600e-01 6.9489200e-03
6.7423900e-01 2.6794600e-01 6.9489200e-03
6.7735567e-01 2.5596067e-01 3.9689633e-03
6.7980333e-01 2.4542567e-01 1.2430433e-03
6.8158200e-01 2.3634100e-01 -1.2288400e-03
6.8269167e-01 2.2870667e-01 -3.4466867e-03
6.8313233e-01 2.2252267e-01 -5.4104967e-03
6.8290400e-01 2.1778900e-01 -7.1202700e-03
6.8290400e-01 2.1778900e-01 -7.1202700e-03
6.8225211e-01 2.1758856e-01 -7.8869911e-03
6.8214111e-01 2.1771722e-01 -8.2690711e-03
6.8257100e-01 2.1817500e-01 -8.2665100e-03
6.8354178e-01 2.1896189e-01 -7.8793078e-03
6.8505344e-01 2.2007789e-01 -7.1074644e-03
6.8710600e-01 2.2152300e-01 -5.9509800e-03
5.8367100e-01 3.2248200e-01 1.6061600e-02
5.8877056e-01 3.2148189e-01 2.3005933e-02
5.9322389e-01 3.1956622e-01 2.9060633e-02
5.9703100e-01 3.1673500e-01 3.4225700e-02
6.0019189e-01 3.1298822e-01 3.8501133e-02
6.0270656e-01 3.0832589e-01 4.1886933e-02
6.0457500e-01 3.0274800e-01 4.4383100e-02
7.2111700e-01 7.8507700e-02 -2.5737000e-02
7.1561656e-01 6.9502033e-02 -2.4759822e-02
7.0997889e-01 6.0913800e-02 -2.3556822e-02
7.0420400e-01 5.2743000e-02 -2.2128000e-02
6.9829189e-01 4.4989633e-02 -2.0473356e-02
6.9224256e-01 3.7653700e-02 -1.8592889e-02
6.8605600e-01 3.0735200e-02 -1.6486600e-02
6.8605600e-01 3.0735200e-02 -1.6486600e-02
6.8271011e-01 2.6575044e-02 -1.6047603e-02
6.7856511e-01 2.2722211e-02 -1.4827303e-02
6.7362100e-01 1.9176700e-02 -1.2825700e-02
6.6787778e-01 1.5938511e-02 -1.0042793e-02
6.6133544e-01 1.3007644e-02 -6.4785833e-03
6.5399400e-01 1.0384100e-02 -2.1330700e-03
6.5399400e-01 1.0384100e-02 -2.1330700e-03
6.4587133e-01 7.2607978e-03 1.6184500e-03
6.3747933e-01 4.5373478e-03 5.0843800e-03
6.2881800e-01 2.2137500e-03 8.2647200e-03
6.1988733e-01 2.9000444e-04 1.1159470e-02
6.1068733e-01 -1.2338889e-03 1.3768630e-02
6.0121800e-01 -2.3579300e-03 1.6092200e-02
6.0121800e-01 -2.3579300e-03 1.6092200e-02
5.8760878e-01 -3.5947967e-03 1.8337867e-02
5.7362544e-01 -4.5786967e-03 1.9917767e-02
5.5926800e-01 -5.3096300e-03 2.0831900e-02
5.4453644e-01 -5.7875967e-03 2.1080267e-02
5.2943078e-01 -6.0125967e-03 2.0662867e-02
5.1395100e-01 -5.9846300e-03 1.9579700e-02
5.1395100e-01 -5.9846300e-03 1.9579700e-02
5.0095400e-01 -4.9509811e-03 1.8675178e-02
4.8808067e-01 -3.6254844e-03 1.7583044e-02
4.7533100e-01 -2.0081400e-03 1.6303300e-02
4.6270500e-01 -9.8947778e-05 1.4835944e-02
4.5020267e-01 2.1020922e-03 1.3180978e-02
4.3782400e-01 4.5949800e-03 1.1338400e-02
4.3782400e-01 4.5949800e-03 1.1338400e-02
4.2527389e-01 6.5929222e-03 8.9502600e-03
4.1255856e-01 8.7916956e-03 6.5703833e-03
3.9967800e-01 1.1191300e-02 4.1987700e-03
3.8663222e-01 1.3791736e-02 1.8354200e-03
3.7342122e-01 1.6593002e-02 -5.1966667e-04
3.6004500e-01 1.9595100e-02 -2.8664900e-03
3.6004500e-01 1.9595100e-02 -2.8664900e-03
3.4788133e-01 2.2067033e-02 -5.0923056e-03
3.3482467e-01 2.4821267e-02 -6.9347956e-03
3.2087500e-01 2.7857800e-02 -8.3939600e-03
3.0603233e-01 3.1176633e-02 -9.4697989e-03
2.9029667e-01 3.4777767e-02 -1.0162312e-02
2.7366800e-01 3.8661200e-02 -1.0471500e-02
2.7366800e-01 3.8661200e-02 -1.0471500e-02
2.5414889e-01 4.3702856e-02 -9.5058922e-03
2.3544356e-01 4.7674322e-02 -8.3930889e-03
2.1755200e-01 5.0575600e-02 -7.1330900e-03
2.0047422e-01 5.2406689e-02 -5.7258956e-03
1.8421022e-01 5.3167589e-02 -4.1715056e-03
1.6876000e-01 5.2858300e-02 -2.4699200e-03
1.6876000e-01 5.2858300e-02 -2.4699200e-03
1.5240518e-01 5.1196567e-02 -7.9907889e-04
1.3715784e-01 4.8983133e-02 6.5991444e-04
1.2301800e-01 4.6218000e-02 1.9070600e-03
1.0998564e-01 4.2901167e-02 2.9423578e-03
9.8060778e-02 3.9032633e-02 3.7658078e-03
8.7243400e-02 3.4612400e-02 4.3774100e-03
8.7243400e-02 3.4612400e-02 4.3774100e-03
7.7129933e-02 3.0464389e-02 5.4116611e-03
6.7483900e-02 2.6398522e-02 6.3960544e-03
5.8305300e-02 2.2414800e-02 7.3305900e-03
4.9594133e-02 1.8513222e-02 8.2152678e-03
4.1350400e-02 1.4693789e-02 9.0500878e-03
3.3574100e-02 1.0956500e-02 9.8350500e-03
3.3574100e-02 1.0956500e-02 9.8350500e-03
2.9136598e-02 9.3238322e-03 8.0933582e-03
2.4617298e-02 7.3316656e-03 6.4252082e-03
2.0016200e-02 4.9800000e-03 4.8306000e-03
1.5333304e-02 2.2688356e-03 3.3095336e-03
1.0568611e-02 -8.0182778e-04 1.8620089e-03
5.7221200e-03 -4.2319900e-03 4.8802600e-04
2.2998700e+00 1.6652600e-01 5.7102600e-02
2.2963389e+00 1.5409826e-01 6.1110433e-02
2.2924589e+00 1.4202692e-01 6.5016700e-02
2.2882300e+00 1.3031200e-01 6.8821400e-02
2.2836522e+00 1.1895349e-01 7.2524533e-02
2.2787256e+00 1.0795139e-01 7.6126100e-02
2.2734500e+00 9.7305700e-02 7.9626100e-02
2.2734500e+00 9.7305700e-02 7.9626100e-02
2.2688233e+00 9.0236967e-02 8.1807733e-02
2.2641400e+00 8.5110133e-02 8.3846633e-02
2.2594000e+00 8.1925200e-02 8.5742800e-02
2.2546033e+00 8.0682167e-02 8.7496233e-02
2.2497500e+00 8.1381033e-02 8.9106933e-02
2.2448400e+00 8.4021800e-02 9.0574900e-02
2.2448400e+00 8.4021800e-02 9.0574900e-02
2.2397033e+00 8.6391111e-02 9.1876778e-02
2.2338567e+00 8.9000111e-02 9.3296844e-02
2.2273000e+00 9.1848800e-02 9.4835100e-02
2.2200333e+00 9.4937178e-02 9.6491544e-02
2.2120567e+00 9.8265244e-02 9.8266178e-02
2.2033700e+00 1.0183300e-01 1.0015900e-01
2.2033700e+00 1.0183300e-01 1.0015900e-01
2.1917744e+00 1.0569864e-01 1.0328778e-01
2.1807544e+00 1.0773998e-01 1.0631044e-01
2.1703100e+00 1.0795700e-01 1.0922700e-01
2.1604411e+00 1.0634971e-01 1.1203744e-01
2.1511478e+00 1.0291811e-01 1.1474178e-01
2.1424300e+00 9.7662200e-02 1.1734000e-01
2.1424300e+00 9.7662200e-02 1.1734000e-01
2.1356367e+00 9.1689044e-02 1.1844200e-01
2.1292067e+00 8.5439678e-02 1.1865500e-01
2.1231400e+00 7.8914100e-02 1.1797900e-01
2.1174367e+00 7.2112311e-02 1.1641400e-01
2.1120967e+00 6.5034311e-02 1.1396000e-01
2.1071200e+00 5.7680100e-02 1.1061700e-01
2.1071200e+00 5.7680100e-02 1.1061700e-01
2.0972056e+00 6.4094756e-02 1.1129556e-01
2.0865056e+00 7.0162122e-02 1.1141789e-01
2.0750200e+00 7.5882200e-02 1.1098400e-01
2.0627489e+00 8.1254989e-02 1.0999389e-01
2.0496922e+00 8.6280489e-02 1.0844756e-01
2.0358500e+00 9.0958700e-02 1.0634500e-01
2.0358500e+00 9.0958700e-02 1.0634500e-01
2.0227533e+00 9.3675200e-02 1.0213333e-01
2.0106833e+00 9.4920133e-02 9.7598267e-02
1.9996400e+00 9.4693500e-02 9.2739800e-02
1.9896233e+00 9.2995300e-02 8.7557933e-02
1.9806333e+00 8.9825533e-02 8.2052667e-02
1.9726700e+00 8.5184200e-02 7.6224000e-02
1.9726700e+00 8.5184200e-02 7.6224000e-02
1.9660344e+00 7.9227278e-02 7.2768778e-02
1.9587711e+00 7.3030878e-02 6.8999878e-02
1.9508800e+00 6.6595000e-02 6.4917300e-02
1.9423611e+00 5.9919644e-02 6.0521044e-02
1.9332144e+00 5.3004811e-02 5.5811111e-02
1.9234400e+00 4.5850500e-02 5.0787500e-02
1.9234400e+00 4.5850500e-02 5.0787500e-02
1.9112056e+00 3.8744844e-02 4.4115433e-02
1.8976689e+00 3.3265811e-02 3.7986667e-02
1.8828300e+00 2.9413400e-02 3.2401200e-02
1.8666889e+00 2.7187611e-02 2.7359033e-02
1.8492456e+00 2.6588444e-02 2.2860167e-02
1.8305000e+00 2.7615900e-02 1.8904600e-02
1.8305000e+00 2.7615900e-02 1.8904600e-02
1.8112344e+00 3.2359744e-02 1.7101478e-02
1.7937644e+00 3.7096678e-02 1.5740544e-02
1.7780900e+00 4.1826700e-02 1.4821800e-02
1.7642111e+00 4.6549811e-02 1.4345244e-02
1.7521278e+00 5.1266011e-02 1.4310878e-02
1.7418400e+00 5.5975300e-02 1.4718700e-02
1.7730200e+00 7.5052800e-02 3.4296400e-03
1.7706011e+00 6.9634522e-02 3.6648389e-03
1.7670711e+00 6.5111722e-02 4.5585622e-03
1.7624300e+00 6.1484400e-02 6.1108100e-03
1.7566778e+00 5.8752556e-02 8.3215822e-03
1.7498144e+00 5.6916189e-02 1.1190879e-02
1.7418400e+00 5.5975300e-02 1.4718700e-02
2.1889300e+00 1.8264400e-01 5.4849200e-02
2.1822789e+00 1.7742933e-01 5.0164711e-02
2.1756622e+00 1.7213867e-01 4.5258111e-02
2.1690800e+00 1.6677200e-01 4.0129400e-02
2.1625322e+00 1.6132933e-01 3.4778578e-02
2.1560189e+00 1.5581067e-01 2.9205644e-02
2.1495400e+00 1.5021600e-01 2.3410600e-02
2.1495400e+00 1.5021600e-01 2.3410600e-02
2.1434544e+00 1.4347367e-01 1.7784967e-02
2.1374911e+00 1.3719133e-01 1.3638533e-02
2.1316500e+00 1.3136900e-01 1.0971300e-02
2.1259311e+00 1.2600667e-01 9.7832667e-03
2.1203344e+00 1.2110433e-01 1.0074433e-02
2.1148600e+00 1.1666200e-01 1.1844800e-02
2.1148600e+00 1.1666200e-01 1.1844800e-02
2.1060556e+00 1.1436567e-01 1.9082300e-02
2.0965556e+00 1.1269567e-01 2.6463733e-02
2.0863600e+00 1.1165200e-01 3.3989100e-02
2.0754689e+00 1.1123467e-01 4.1658400e-02
2.0638822e+00 1.1144367e-01 4.9471633e-02
2.0516000e+00 1.1227900e-01 5.7428800e-02
2.0516000e+00 1.1227900e-01 5.7428800e-02
2.0396611e+00 1.1482044e-01 6.6479444e-02
2.0272278e+00 1.1675511e-01 7.5742511e-02
2.0143000e+00 1.1808300e-01 8.5218000e-02
2.0008778e+00 1.1880411e-01 9.4905911e-02
1.9869611e+00 1.1891844e-01 1.0480624e-01
1.9725500e+00 1.1842600e-01 1.1491900e-01
1.9725500e+00 1.1842600e-01 1.1491900e-01
1.9580844e+00 1.1092469e-01 1.1444716e-01
1.9424744e+00 1.0416812e-01 1.1038682e-01
1.9257200e+00 9.8156300e-02 1.0273800e-01
1.9078211e+00 9.2889222e-02 9.1500689e-02
1.8887778e+00 8.8366889e-02 7.6674889e-02
1.8685900e+00 8.4589300e-02 5.8260600e-02
1.8685900e+00 8.4589300e-02 5.8260600e-02
1.8498589e+00 8.3399244e-02 4.4108762e-02
1.8322489e+00 8.2049444e-02 3.1962262e-02
1.8157600e+00 8.0539900e-02 2.1821100e-02
1.8003922e+00 7.8870611e-02 1.3685276e-02
1.7861456e+00 7.7041578e-02 7.5547889e-03
1.7730200e+00 7.5052800e-02 3.4296400e-03
1.2902800e+00 1.2118100e-01 -6.0302500e-03
1.3044378e+00 1.1054007e-01 -4.1455778e-03
1.3211011e+00 1.0075763e-01 -3.4361578e-03
1.3402700e+00 9.1833700e-02 -3.9019900e-03
1.3619444e+00 8.3768267e-02 -5.5430744e-03
1.3861244e+00 7.6561333e-02 -8.3594111e-03
1.4128100e+00 7.0212900e-02 -1.2351000e-02
1.4128100e+00 7.0212900e-02 -1.2351000e-02
1.4374600e+00 7.1747833e-02 -1.2765097e-02
1.4609500e+00 7.5088400e-02 -1.2394997e-02
1.4832800e+00 8.0234600e-02 -1.1240700e-02
1.5044500e+00 8.7186433e-02 -9.3022067e-03
1.5244600e+00 9.5943900e-02 -6.5795167e-03
1.5433100e+00 1.0650700e-01 -3.0726300e-03
1.5433100e+00 1.0650700e-01 -3.0726300e-03
1.5610400e+00 1.1677500e-01 -8.1330667e-04
1.5795467e+00 1.2498700e-01 1.4075000e-03
1.5988300e+00 1.3114300e-01 3.5897900e-03
1.6188900e+00 1.3524300e-01 5.7335633e-03
1.6397267e+00 1.3728700e-01 7.8388200e-03
1.6613400e+00 1.3727500e-01 9.9055600e-03
1.6613400e+00 1.3727500e-01 9.9055600e-03
1.6845256e+00 1.2928747e-01 1.0312546e-02
1.7058822e+00 1.2034680e-01 1.0125009e-02
1.7254100e+00 1.1045300e-01 9.3429500e-03
1.7431089e+00 9.9606067e-02 7.9663689e-03
1.7589789e+00 8.7806000e-02 5.9952656e-03
1.7730200e+00 7.5052800e-02 3.4296400e-03
1.0543200e+00 3.8364300e-01 -7.0427300e-03