# vtk DataFile Version 2.0
test
ASCII
DATASET POLYDATA
POINTS 4361 float
5.9836922e+00 7.3251435e+00 1.1858310e+01
6.1005011e+00 7.3762770e+00 1.1736041e+01
6.2186554e+00 7.4258192e+00 1.1614472e+01
6.3381550e+00 7.4737701e+00 1.1493603e+01
6.4590000e+00 7.5201295e+00 1.1373432e+01
6.5811902e+00 7.5648976e+00 1.1253962e+01
6.7047258e+00 7.6080744e+00 1.1135191e+01
6.7047258e+00 7.6080744e+00 1.1135191e+01
6.8310912e+00 7.6605108e+00 1.1020194e+01
6.9631481e+00 7.7110442e+00 1.0912482e+01
7.1008965e+00 7.7596745e+00 1.0812053e+01
7.2443363e+00 7.8064018e+00 1.0718907e+01
7.3934677e+00 7.8512260e+00 1.0633046e+01
7.5482906e+00 7.8941471e+00 1.0554468e+01
7.5482906e+00 7.8941471e+00 1.0554468e+01
7.7161180e+00 7.9295558e+00 1.0499830e+01
7.8857885e+00 7.9631568e+00 1.0461351e+01
8.0573020e+00 7.9949500e+00 1.0439031e+01
8.2306586e+00 8.0249355e+00 1.0432869e+01
8.4058583e+00 8.0531133e+00 1.0442867e+01
8.5829011e+00 8.0794834e+00 1.0469023e+01
8.5829011e+00 8.0794834e+00 1.0469023e+01
8.7577879e+00 8.1018539e+00 1.0494457e+01
8.9322856e+00 8.1224488e+00 1.0523288e+01
9.1063942e+00 8.1412682e+00 1.0555516e+01
9.2801137e+00 8.1583120e+00 1.0591141e+01
9.4534442e+00 8.1735803e+00 1.0630163e+01
9.6263856e+00 8.1870731e+00 1.0672582e+01
9.6263856e+00 8.1870731e+00 1.0672582e+01
9.7990121e+00 8.1986781e+00 1.0717146e+01
9.9725863e+00 8.2084911e+00 1.0757228e+01
1.0147108e+01 8.2165121e+00 1.0792828e+01
1.0322578e+01 8.2227410e+00 1.0823946e+01
1.0498995e+01 8.2271780e+00 1.0850581e+01
1.0676360e+01 8.2298229e+00 1.0872735e+01
1.0676360e+01 8.2298229e+00 1.0872735e+01
1.0856374e+01 8.2296349e+00 1.0886376e+01
1.1034450e+01 8.2276898e+00 1.0885405e+01
1.1210589e+01 8.2239877e+00 1.0869822e+01
1.1384792e+01 8.2185286e+00 1.0839628e+01
1.1557057e+01 8.2113124e+00 1.0794822e+01
1.1727385e+01 8.2023392e+00 1.0735404e+01
1.1727385e+01 8.2023392e+00 1.0735404e+01
1.1890110e+01 8.1913936e+00 1.0657711e+01
1.2044228e+01 8.1824587e+00 1.0568478e+01
1.2189737e+01 8.1755347e+00 1.0467706e+01
1.2326639e+01 8.1706215e+00 1.0355394e+01
1.2454932e+01 8.1677192e+00 1.0231543e+01
1.2574618e+01 8.1668276e+00 1.0096152e+01
1.2574618e+01 8.1668276e+00 1.0096152e+01
1.2679874e+01 8.1906377e+00 9.9531619e+00
1.2784329e+01 8.2108888e+00 9.8090438e+00
1.2887984e+01 8.2275808e+00 9.6637972e+00
1.2990838e+01 8.2407137e+00 9.5174223e+00
1.3092892e+01 8.2502876e+00 9.3699190e+00
1.3194146e+01 8.2563024e+00 9.2212872e+00
1.3194146e+01 8.2563024e+00 9.2212872e+00
1.3085156e+01 8.1803124e+00 9.0899836e+00
1.2975984e+01 8.1002929e+00 8.9619078e+00
1.2866628e+01 8.0162438e+00 8.8370599e+00
1.2757089e+01 7.9281653e+00 8.7154399e+00
1.2647368e+01 7.8360572e+00 8.5970476e+00
1.2537463e+01 7.7399196e+00 8.4818832e+00
1.2537463e+01 7.7399196e+00 8.4818832e+00
1.2426411e+01 7.6641272e+00 8.3534942e+00
1.2318813e+01 7.5869695e+00 8.2233888e+00
1.2214669e+01 7.5084467e+00 8.0915670e+00
1.2113978e+01 7.4285587e+00 7.9580289e+00
1.2016742e+01 7.3473054e+00 7.8227745e+00
1.1922960e+01 7.2646870e+00 7.6858038e+00
1.1922960e+01 7.2646870e+00 7.6858038e+00
1.1834861e+01 7.1852185e+00 7.5425201e+00
1.1754137e+01 7.1034400e+00 7.3972519e+00
1.1680789e+01 7.0193515e+00 7.2499993e+00
1.1614816e+01 6.9329530e+00 7.1007622e+00
1.1556219e+01 6.8442445e+00 6.9495406e+00
1.1504997e+01 6.7532261e+00 6.7963346e+00
1.1504997e+01 6.7532261e+00 6.7963346e+00
1.1467726e+01 6.6596801e+00 6.6416732e+00
1.1439257e+01 6.5645972e+00 6.4869571e+00
1.1419589e+01 6.4679775e+00 6.3321861e+00
1.1408722e+01 6.3698209e+00 6.1773604e+00
1.1406657e+01 6.2701274e+00 6.0224799e+00
1.1413393e+01 6.1688970e+00 5.8675447e+00
1.1413393e+01 6.1688970e+00 5.8675447e+00
1.1429016e+01 6.0663034e+00 5.7148206e+00
1.1451322e+01 5.9619756e+00 5.5649734e+00
1.1480311e+01 5.8559135e+00 5.4180032e+00
1.1515983e+01 5.7481170e+00 5.2739100e+00
1.1558338e+01 5.6385863e+00 5.1326938e+00
1.1607376e+01 5.5273212e+00 4.9943546e+00
1.1607376e+01 5.5273212e+00 4.9943546e+00
1.1658762e+01 5.4151729e+00 4.8582999e+00
1.1711739e+01 5.3023034e+00 4.7235172e+00
1.1766307e+01 5.1887126e+00 4.5900066e+00
1.1822465e+01 5.0744004e+00 4.4577681e+00
1.1880214e+01 4.9593671e+00 4.3268015e+00
1.1939553e+01 4.8436124e+00 4.1971070e+00
1.1939553e+01 4.8436124e+00 4.1971070e+00
1.1997522e+01 4.7263156e+00 4.0685034e+00
1.2052236e+01 4.6062050e+00 3.9409707e+00
1.2103694e+01 4.4832806e+00 3.8145090e+00
1.2151898e+01 4.3575423e+00 3.6891184e+00
1.2196847e+01 4.2289902e+00 3.5647987e+00
1.2238540e+01 4.0976242e+00 3.4415501e+00
1.2238540e+01 4.0976242e+00 3.4415501e+00
1.2275511e+01 3.9633974e+00 3.3195106e+00
1.2305489e+01 3.8278965e+00 3.1977802e+00
1.2328475e+01 3.6911214e+00 3.0763589e+00
1.2344467e+01 3.5530723e+00 2.9552466e+00
1.2353467e+01 3.4137490e+00 2.8344434e+00
1.2355474e+01 3.2731515e+00 2.7139494e+00
1.2355474e+01 3.2731515e+00 2.7139494e+00
1.2349378e+01 3.1299886e+00 2.5955762e+00
1.2334762e+01 2.9865827e+00 2.4793377e+00
1.2311625e+01 2.8429338e+00 2.3652339e+00
1.2279967e+01 2.6990419e+00 2.2532649e+00
1.2239788e+01 2.5549071e+00 2.1434305e+00
1.2191088e+01 2.4105293e+00 2.0357309e+00
1.2191088e+01 2.4105293e+00 2.0357309e+00
1.2134192e+01 2.2700660e+00 1.9273044e+00
1.2071424e+01 2.1307451e+00 1.8211607e+00
1.2002785e+01 1.9925667e+00 1.7172998e+00
1.1928274e+01 1.8555307e+00 1.6157218e+00
1.1847892e+01 1.7196372e+00 1.5164266e+00
1.1761638e+01 1.5848861e+00 1.4194142e+00
1.1761638e+01 1.5848861e+00 1.4194142e+00
1.1666422e+01 1.4525699e+00 1.3270367e+00
1.1568408e+01 1.3211934e+00 1.2366567e+00
1.1467595e+01 1.1907568e+00 1.1482741e+00
1.1363985e+01 1.0612601e+00 1.0618890e+00
1.1257577e+01 9.3270315e-01 9.7750135e-01
1.1148370e+01 8.0508607e-01 8.9511117e-01
1.1148370e+01 8.0508607e-01 8.9511117e-01
1.1040382e+01 6.7452670e-01 8.1327066e-01
1.0932044e+01 5.4421944e-01 7.3201701e-01
1.0823357e+01 4.1416429e-01 6.5135021e-01
1.0714320e+01 2.8436125e-01 5.7127026e-01
1.0604933e+01 1.5481032e-01 4.9177717e-01
1.0495197e+01 2.5511500e-02 4.1287093e-01
3.6487600e+00 6.3174421e+00 1.1752774e+01
3.6054209e+00 6.2687138e+00 1.1572869e+01
3.5611975e+00 6.2146662e+00 1.1395022e+01
3.5160898e+00 6.1552995e+00 1.1219234e+01
3.4700979e+00 6.0906136e+00 1.1045504e+01
3.4232217e+00 6.0206086e+00 1.0873832e+01
3.3754612e+00 5.9452843e+00 1.0704220e+01
3.3754612e+00 5.9452843e+00 1.0704220e+01
3.3398585e+00 5.8867542e+00 1.0525346e+01
3.3102496e+00 5.8260448e+00 1.0346640e+01
3.2866346e+00 5.7631561e+00 1.0168103e+01
3.2690134e+00 5.6980880e+00 9.9897330e+00
3.2573861e+00 5.6308406e+00 9.8115316e+00
3.2517526e+00 5.5614139e+00 9.6334982e+00
3.2517526e+00 5.5614139e+00 9.6334982e+00
3.2560201e+00 5.4867117e+00 9.4568265e+00
3.2683684e+00 5.4084744e+00 9.2833694e+00
3.2887976e+00 5.3267020e+00 9.1131270e+00
3.3173076e+00 5.2413943e+00 8.9460992e+00
3.3538985e+00 5.1525515e+00 8.7822860e+00
3.3985702e+00 5.0601735e+00 8.6216875e+00
3.3985702e+00 5.0601735e+00 8.6216875e+00
3.4616862e+00 4.9613742e+00 8.4694804e+00
3.5367700e+00 4.8603845e+00 8.3278377e+00
3.6238216e+00 4.7572043e+00 8.1967592e+00
3.7228410e+00 4.6518336e+00 8.0762450e+00
3.8338282e+00 4.5442724e+00 7.9662950e+00
3.9567833e+00 4.4345207e+00 7.8669094e+00
3.9567833e+00 4.4345207e+00 7.8669094e+00
4.0774021e+00 4.3258573e+00 7.7688415e+00
4.1983214e+00 4.2165069e+00 7.6720828e+00
4.3195412e+00 4.1064694e+00 7.5766335e+00
4.4410615e+00 3.9957448e+00 7.4824934e+00
4.5628823e+00 3.8843332e+00 7.3896626e+00
4.6850035e+00 3.7722346e+00 7.2981410e+00
4.6850035e+00 3.7722346e+00 7.2981410e+00
4.8088714e+00 3.6574310e+00 7.2111242e+00
4.9283680e+00 3.5399947e+00 7.1221353e+00
5.0434932e+00 3.4199257e+00 7.0311746e+00
5.1542471e+00 3.2972238e+00 6.9382419e+00
5.2606297e+00 3.1718893e+00 6.8433372e+00
5.3626409e+00 3.0439219e+00 6.7464606e+00
5.3626409e+00 3.0439219e+00 6.7464606e+00
5.4566148e+00 2.9137139e+00 6.6429115e+00
5.5396904e+00 2.7822521e+00 6.5340927e+00
5.6118678e+00 2.6495365e+00 6.4200042e+00
5.6731468e+00 2.5155672e+00 6.3006460e+00
5.7235277e+00 2.3803441e+00 6.1760182e+00
5.7630102e+00 2.2438672e+00 6.0461208e+00
5.7630102e+00 2.2438672e+00 6.0461208e+00
5.7843620e+00 2.1079558e+00 5.9111813e+00
5.7946009e+00 1.9734340e+00 5.7753263e+00
5.7937268e+00 1.8403017e+00 5.6385558e+00
5.7817397e+00 1.7085590e+00 5.5008697e+00
5.7586397e+00 1.5782059e+00 5.3622682e+00
5.7244266e+00 1.4492423e+00 5.2227512e+00
5.7244266e+00 1.4492423e+00 5.2227512e+00
5.6839965e+00 1.3244481e+00 5.0813769e+00
5.6390633e+00 1.2014927e+00 4.9400271e+00
5.5896270e+00 1.0803762e+00 4.7987019e+00
5.5356876e+00 9.6109857e-01 4.6574013e+00
5.4772450e+00 8.4365979e-01 4.5161252e+00
5.4142994e+00 7.2805986e-01 4.3748736e+00
5.4142994e+00 7.2805986e-01 4.3748736e+00
5.3498466e+00 6.0826943e-01 4.2380215e+00
5.2844219e+00 4.8833345e-01 4.1016513e+00
5.2180254e+00 3.6825191e-01 3.9657630e+00
5.1506570e+00 2.4802482e-01 3.8303565e+00
5.0823166e+00 1.2765217e-01 3.6954320e+00
5.0130045e+00 7.1339700e-03 3.5609894e+00
2.4273700e+00 6.1285644e+00 1.3844624e+01
2.5054263e+00 6.2382330e+00 1.3701613e+01
2.5952167e+00 6.3458293e+00 1.3568065e+01
2.6967411e+00 6.4513532e+00 1.3443980e+01
2.8099994e+00 6.5548048e+00 1.3329357e+01
2.9349918e+00 6.6561840e+00 1.3224197e+01
3.0717182e+00 6.7554909e+00 1.3128500e+01
3.0717182e+00 6.7554909e+00 1.3128500e+01
3.2388886e+00 6.8372377e+00 1.3072099e+01
3.4115758e+00 6.9080232e+00 1.3028123e+01
3.5897800e+00 6.9678474e+00 1.2996571e+01
3.7735011e+00 7.0167103e+00 1.2977443e+01
3.9627391e+00 7.0546120e+00 1.2970740e+01
4.1574940e+00 7.0815524e+00 1.2976461e+01
4.1574940e+00 7.0815524e+00 1.2976461e+01
4.3529568e+00 7.1006490e+00 1.2982673e+01
4.5443604e+00 7.1201732e+00 1.2971370e+01
4.7317048e+00 7.1401249e+00 1.2942553e+01
4.9149899e+00 7.1605043e+00 1.2896221e+01
5.0942158e+00 7.1813112e+00 1.2832375e+01
5.2693825e+00 7.2025458e+00 1.2751014e+01
5.2693825e+00 7.2025458e+00 1.2751014e+01
5.4170226e+00 7.2304633e+00 1.2627222e+01
5.5532274e+00 7.2553871e+00 1.2493433e+01
5.6779967e+00 7.2773169e+00 1.2349647e+01
5.7913306e+00 7.2962529e+00 1.2195865e+01
[...]
POINT_DATA 4361
VECTORS U float
2.6867900e+00 8.6229500e-01 -8.9477100e-03
2.7077633e+00 8.4193244e-01 2.4777500e-03
2.7274467e+00 8.1965578e-01 1.2283387e-02
2.7458400e+00 7.9546500e-01 2.0469200e-02
2.7629433e+00 7.6936011e-01 2.7035190e-02
2.7787567e+00 7.4134111e-01 3.1981357e-02
2.7932800e+00 7.1140800e-01 3.5307700e-02
2.7932800e+00 7.1140800e-01 3.5307700e-02
2.8044556e+00 6.8953667e-01 3.8186504e-02
2.8141322e+00 6.6623000e-01 3.8223604e-02
2.8223100e+00 6.4148800e-01 3.5419000e-02
2.8289889e+00 6.1531067e-01 2.9772691e-02
2.8341689e+00 5.8769800e-01 2.1284678e-02
2.8378500e+00 5.5865000e-01 9.9549600e-03
2.8378500e+00 5.5865000e-01 9.9549600e-03
2.8460367e+00 5.2479011e-01 4.0187389e-03
2.8533200e+00 4.9298544e-01 1.4685556e-03
2.8597000e+00 4.6323600e-01 2.3044100e-03
2.8651767e+00 4.3554178e-01 6.5263022e-03
2.8697500e+00 4.0990278e-01 1.4134232e-02
2.8734200e+00 3.8631900e-01 2.5128200e-02
2.8734200e+00 3.8631900e-01 2.5128200e-02
2.8763578e+00 3.6334222e-01 2.7133767e-02
2.8788511e+00 3.4198189e-01 2.8860833e-02
2.8809000e+00 3.2223800e-01 3.0309400e-02
2.8825044e+00 3.0411056e-01 3.1479467e-02
2.8836644e+00 2.8759956e-01 3.2371033e-02
2.8843800e+00 2.7270500e-01 3.2984100e-02
2.8843800e+00 2.7270500e-01 3.2984100e-02
2.8843300e+00 2.5854567e-01 3.5902400e-02
2.8842267e+00 2.4535067e-01 3.8390700e-02
2.8840700e+00 2.3312000e-01 4.0449000e-02
2.8838600e+00 2.2185367e-01 4.2077300e-02
2.8835967e+00 2.1155167e-01 4.3275600e-02
2.8832800e+00 2.0221400e-01 4.4043900e-02
2.8832800e+00 2.0221400e-01 4.4043900e-02
2.8829056e+00 1.9290022e-01 4.5022178e-02
2.8821589e+00 1.8484322e-01 4.4582578e-02
2.8810400e+00 1.7804300e-01 4.2725100e-02
2.8795489e+00 1.7249956e-01 3.9449744e-02
2.8776856e+00 1.6821289e-01 3.4756511e-02
2.8754500e+00 1.6518300e-01 2.8645400e-02
2.8754500e+00 1.6518300e-01 2.8645400e-02
2.8731044e+00 1.6333589e-01 2.3163972e-02
2.8689811e+00 1.6512856e-01 1.6396782e-02
2.8630800e+00 1.7056100e-01 8.3438300e-03
2.8554011e+00 1.7963322e-01 -9.9488444e-04
2.8459444e+00 1.9234522e-01 -1.1619361e-02
2.8347100e+00 2.0869700e-01 -2.3529600e-02
2.8347100e+00 2.0869700e-01 -2.3529600e-02
2.8153544e+00 2.5018378e-01 -3.8863178e-02
2.7978378e+00 2.8841111e-01 -5.3007278e-02
2.7821600e+00 3.2337900e-01 -6.5961900e-02
2.7683211e+00 3.5508744e-01 -7.7727044e-02
2.7563211e+00 3.8353644e-01 -8.8302711e-02
2.7461600e+00 4.0872600e-01 -9.7688900e-02
2.7461600e+00 4.0872600e-01 -9.7688900e-02
2.7320322e+00 3.9638389e-01 -8.4752611e-02
2.7163789e+00 3.8052689e-01 -6.7979311e-02
2.6992000e+00 3.6115500e-01 -4.7369000e-02
2.6804956e+00 3.3826822e-01 -2.2921678e-02
2.6602656e+00 3.1186656e-01 5.3626556e-03
2.6385100e+00 2.8195000e-01 3.7484000e-02
2.6385100e+00 2.8195000e-01 3.7484000e-02
2.6130911e+00 2.7342956e-01 5.7716889e-02
2.5863578e+00 2.6510256e-01 7.7792289e-02
2.5583100e+00 2.5696900e-01 9.7710200e-02
2.5289478e+00 2.4902889e-01 1.1747062e-01
2.4982711e+00 2.4128222e-01 1.3707356e-01
2.4662800e+00 2.3372900e-01 1.5651900e-01
2.4662800e+00 2.3372900e-01 1.5651900e-01
2.4328978e+00 2.3161122e-01 1.7193278e-01
2.3975911e+00 2.2922356e-01 1.8611078e-01
2.3603600e+00 2.2656600e-01 1.9905300e-01
2.3212044e+00 2.2363856e-01 2.1075944e-01
2.2801244e+00 2.2044122e-01 2.2123011e-01
2.2371200e+00 2.1697400e-01 2.3046500e-01
2.2371200e+00 2.1697400e-01 2.3046500e-01
2.1956911e+00 2.1288967e-01 2.3750500e-01
2.1531844e+00 2.0824600e-01 2.4210333e-01
2.1096000e+00 2.0304300e-01 2.4426000e-01
2.0649378e+00 1.9728067e-01 2.4397500e-01
2.0191978e+00 1.9095900e-01 2.4124833e-01
1.9723800e+00 1.8407800e-01 2.3608000e-01
1.9723800e+00 1.8407800e-01 2.3608000e-01
1.9263056e+00 1.7593644e-01 2.2904544e-01
1.8815422e+00 1.6645378e-01 2.2171044e-01
1.8380900e+00 1.5563000e-01 2.1407500e-01
1.7959489e+00 1.4346511e-01 2.0613911e-01
1.7551189e+00 1.2995911e-01 1.9790278e-01
1.7156000e+00 1.1511200e-01 1.8936600e-01
1.7156000e+00 1.1511200e-01 1.8936600e-01
1.6755633e+00 9.9804189e-02 1.8030344e-01
1.6356033e+00 8.4783422e-02 1.7051711e-01
1.5957200e+00 7.0049700e-02 1.6000700e-01
1.5559133e+00 5.5603022e-02 1.4877311e-01
1.5161833e+00 4.1443389e-02 1.3681544e-01
1.4765300e+00 2.7570800e-02 1.2413400e-01
1.4765300e+00 2.7570800e-02 1.2413400e-01
1.4355100e+00 1.3602678e-02 1.1127111e-01
1.3927567e+00 -1.0753889e-03 9.8737778e-02
1.3482700e+00 -1.6463400e-02 8.6534000e-02
1.3020500e+00 -3.2561356e-02 7.4659778e-02
1.2540967e+00 -4.9369256e-02 6.3115111e-02
1.2044100e+00 -6.6887100e-02 5.1900000e-02
1.2044100e+00 -6.6887100e-02 5.1900000e-02
1.1528752e+00 -8.4432611e-02 4.1840959e-02
1.0997286e+00 -1.0006591e-01 3.2120159e-02
1.0449700e+00 -1.1378700e-01 2.2737600e-02
9.8859956e-01 -1.2559588e-01 1.3693282e-02
9.3061722e-01 -1.3549254e-01 4.9872056e-03
8.7102300e-01 -1.4347700e-01 -3.3806300e-03
8.7102300e-01 -1.4347700e-01 -3.3806300e-03
8.1147989e-01 -1.4999311e-01 -9.1883500e-03
7.5330389e-01 -1.5428811e-01 -1.3501440e-02
6.9649500e-01 -1.5636200e-01 -1.6319900e-02
6.4105322e-01 -1.5621478e-01 -1.7643730e-02
5.8697856e-01 -1.5384644e-01 -1.7472930e-02
5.3427100e-01 -1.4925700e-01 -1.5807500e-02
5.3427100e-01 -1.4925700e-01 -1.5807500e-02
4.8574889e-01 -1.3981093e-01 -1.6638356e-02
4.4065922e-01 -1.2973093e-01 -1.7282122e-02
3.9900200e-01 -1.1901700e-01 -1.7738800e-02
3.6077722e-01 -1.0766913e-01 -1.8008389e-02
3.2598489e-01 -9.5687333e-02 -1.8090889e-02
2.9462500e-01 -8.3071600e-02 -1.7986300e-02
2.9462500e-01 -8.3071600e-02 -1.7986300e-02
2.6137711e-01 -7.0012000e-02 -1.5787200e-02
2.3010011e-01 -5.7373200e-02 -1.3323633e-02
2.0079400e-01 -4.5155200e-02 -1.0595600e-02
1.7345878e-01 -3.3358000e-02 -7.6031000e-03
1.4809444e-01 -2.1981600e-02 -4.3461333e-03
1.2470100e-01 -1.1026000e-02 -8.2470000e-04
1.2470100e-01 -1.1026000e-02 -8.2470000e-04
1.0504154e-01 -4.2109500e-03 2.0397222e-03
8.6374844e-02 2.3139133e-03 4.9061622e-03
6.8700900e-02 8.5485900e-03 7.7746200e-03
5.2019711e-02 1.4493080e-02 1.0645096e-02
3.6331278e-02 2.0147383e-02 1.3517589e-02
2.1635600e-02 2.5511500e-02 1.6392100e-02
2.4306400e+00 1.1059300e+00 1.0821900e-01
2.4098878e+00 1.0934329e+00 1.1583456e-01
2.3859511e+00 1.0762029e+00 1.2558922e-01
2.3588300e+00 1.0542400e+00 1.3748300e-01
2.3285244e+00 1.0275442e+00 1.5151589e-01
2.2950344e+00 9.9611556e-01 1.6768789e-01
2.2583600e+00 9.5995400e-01 1.8599900e-01
2.2583600e+00 9.5995400e-01 1.8599900e-01
2.2293511e+00 9.4179111e-01 1.9565267e-01
2.1983744e+00 9.2329744e-01 2.0441933e-01
2.1654300e+00 9.0447300e-01 2.1229900e-01
2.1305178e+00 8.8531778e-01 2.1929167e-01
2.0936378e+00 8.6583178e-01 2.2539733e-01
2.0547900e+00 8.4601500e-01 2.3061600e-01
2.0547900e+00 8.4601500e-01 2.3061600e-01
2.0130978e+00 8.2372300e-01 2.3474844e-01
1.9678511e+00 8.0008867e-01 2.3604811e-01
1.9190500e+00 7.7511200e-01 2.3451500e-01
1.8666944e+00 7.4879300e-01 2.3014911e-01
1.8107844e+00 7.2113167e-01 2.2295044e-01
1.7513200e+00 6.9212800e-01 2.1291900e-01
1.7513200e+00 6.9212800e-01 2.1291900e-01
1.6994067e+00 6.5826033e-01 2.0130200e-01
1.6533500e+00 6.2350067e-01 1.9310367e-01
1.6131500e+00 5.8784900e-01 1.8832400e-01
1.5788067e+00 5.5130533e-01 1.8696300e-01
1.5503200e+00 5.1386967e-01 1.8902067e-01
1.5276900e+00 4.7554200e-01 1.9449700e-01
1.5276900e+00 4.7554200e-01 1.9449700e-01
1.5003967e+00 4.3929367e-01 1.9579778e-01
1.4723133e+00 4.0400600e-01 1.9525511e-01
1.4434400e+00 3.6967900e-01 1.9286900e-01
1.4137767e+00 3.3631267e-01 1.8863944e-01
1.3833233e+00 3.0390700e-01 1.8256644e-01
1.3520800e+00 2.7246200e-01 1.7465000e-01
1.3520800e+00 2.7246200e-01 1.7465000e-01
1.3230889e+00 2.4035892e-01 1.7015744e-01
1.2919389e+00 2.0851792e-01 1.6444711e-01
1.2586300e+00 1.7693900e-01 1.5751900e-01
1.2231622e+00 1.4562216e-01 1.4937311e-01
1.1855356e+00 1.1456739e-01 1.4000944e-01
1.1457500e+00 8.3774700e-02 1.2942800e-01
1.1457500e+00 8.3774700e-02 1.2942800e-01
1.1014771e+00 5.4701467e-02 1.1505288e-01
1.0537304e+00 2.8393340e-02 9.9746044e-02
1.0025100e+00 4.8503200e-03 8.3507500e-02
9.4781578e-01 -1.5927593e-02 6.6337244e-02
8.8964778e-01 -3.3940400e-02 4.8235278e-02
8.2800600e-01 -4.9188100e-02 2.9201600e-02
8.2800600e-01 -4.9188100e-02 2.9201600e-02
7.6065111e-01 -5.9255322e-02 1.1843811e-02
6.9474478e-01 -6.6375756e-02 -2.3621889e-03
6.3028700e-01 -7.0549400e-02 -1.3416400e-02
5.6727778e-01 -7.1776256e-02 -2.1318822e-02
5.0571711e-01 -7.0056322e-02 -2.6069456e-02
4.4560500e-01 -6.5389600e-02 -2.7668300e-02
4.4560500e-01 -6.5389600e-02 -2.7668300e-02
3.9236956e-01 -5.7943433e-02 -2.9421100e-02
3.4275456e-01 -4.9851333e-02 -3.0440467e-02
2.9676000e-01 -4.1113300e-02 -3.0726400e-02
2.5438589e-01 -3.1729333e-02 -3.0278900e-02
2.1563222e-01 -2.1699433e-02 -2.9097967e-02
1.8049900e-01 -1.1023600e-02 -2.7183600e-02
1.8049900e-01 -1.1023600e-02 -2.7183600e-02
1.4826837e-01 -6.0766689e-03 -2.1296928e-02
1.1735703e-01 -1.8980056e-03 -1.4989758e-02
8.7765000e-02 1.5123900e-03 -8.2620900e-03
5.9492267e-02 4.1545178e-03 -1.1139244e-03
3.2538833e-02 6.0283778e-03 6.4547389e-03
6.9047000e-03 7.1339700e-03 1.4443900e-02
2.4273700e+00 1.1588600e+00 -7.5158800e-02
2.4547289e+00 1.1654544e+00 -5.8782444e-02
2.4804589e+00 1.1685411e+00 -4.3086711e-02
2.5045600e+00 1.1681200e+00 -2.8071600e-02
2.5270322e+00 1.1641911e+00 -1.3737111e-02
2.5478756e+00 1.1567544e+00 -8.3244444e-05
2.5670900e+00 1.1458100e+00 1.2890000e-02
2.5670900e+00 1.1458100e+00 1.2890000e-02
2.5824667e+00 1.1230928e+00 2.0549873e-02
2.5962733e+00 1.0982028e+00 2.4554907e-02
2.6085100e+00 1.0711400e+00 2.4905100e-02
2.6191767e+00 1.0419044e+00 2.1600453e-02
2.6282733e+00 1.0104961e+00 1.4640967e-02
2.6358000e+00 9.7691500e-01 4.0266400e-03
2.6358000e+00 9.7691500e-01 4.0266400e-03
2.6424811e+00 9.4024944e-01 -5.1297556e-03
2.6477344e+00 9.0887378e-01 -1.2947702e-02
2.6515600e+00 8.8278800e-01 -1.9427200e-02
2.6539578e+00 8.6199211e-01 -2.4568249e-02
2.6549278e+00 8.4648611e-01 -2.8370849e-02
2.6544700e+00 8.3627000e-01 -3.0835000e-02
2.6544700e+00 8.3627000e-01 -3.0835000e-02
2.6562678e+00 8.4073556e-01 -2.8318921e-02
2.6595011e+00 8.4514989e-01 -2.5350121e-02
2.6641700e+00 8.4951300e-01 -2.1928600e-02
2.6702744e+00 8.5382489e-01 -1.8054358e-02
2.6778144e+00 8.5808556e-01 -1.3727394e-02
2.6867900e+00 8.6229500e-01 -8.9477100e-03
2.3783800e+00 1.1385000e+00 1.6764700e-02
2.3907567e+00 1.1392522e+00 4.0274444e-02
2.4016667e+00 1.1375322e+00 6.0477244e-02
2.4111100e+00 1.1333400e+00 7.7373100e-02
2.4190867e+00 1.1266756e+00 9.0962011e-02
2.4255967e+00 1.1175389e+00 1.0124398e-01
2.4306400e+00 1.1059300e+00 1.0821900e-01
2.7461600e+00 4.0872600e-01 -9.7688900e-02
2.7134589e+00 3.6390267e-01 -9.4147056e-02
2.6792689e+00 3.2042367e-01 -8.8864156e-02
2.6435900e+00 2.7828900e-01 -8.1840200e-02
2.6064222e+00 2.3749867e-01 -7.3075189e-02
2.5677656e+00 1.9805267e-01 -6.2569122e-02
2.5276200e+00 1.5995100e-01 -5.0322000e-02
2.5276200e+00 1.5995100e-01 -5.0322000e-02
2.5046800e+00 1.3593843e-01 -4.3385922e-02
2.4796000e+00 1.1464697e-01 -3.4137022e-02
2.4523800e+00 9.6076600e-02 -2.2575300e-02
2.4230200e+00 8.0227333e-02 -8.7007556e-03
2.3915200e+00 6.7099167e-02 7.4866111e-03
2.3578800e+00 5.6692100e-02 2.5986800e-02
2.3578800e+00 5.6692100e-02 2.5986800e-02
2.3188967e+00 4.4798416e-02 4.2906267e-02
2.2792333e+00 3.4086916e-02 5.7768400e-02
2.2388900e+00 2.4557600e-02 7.0573200e-02
2.1978667e+00 1.6210469e-02 8.1320667e-02
2.1561633e+00 9.0455222e-03 9.0010800e-02
2.1137800e+00 3.0627600e-03 9.6643600e-02
2.1137800e+00 3.0627600e-03 9.6643600e-02
2.0627844e+00 -2.2610111e-03 9.9525367e-02
2.0115611e+00 -6.7165978e-03 9.9918267e-02
1.9601100e+00 -1.0304000e-02 9.7822300e-02
1.9084311e+00 -1.3023218e-02 9.3237467e-02
1.8565244e+00 -1.4874251e-02 8.6163767e-02
1.8043900e+00 -1.5857100e-02 7.6601200e-02
1.8043900e+00 -1.5857100e-02 7.6601200e-02
1.7598489e+00 -1.3668767e-02 6.9308667e-02
1.7164289e+00 -1.0540107e-02 6.1684400e-02
1.6741300e+00 -6.4711200e-03 5.3728400e-02
1.6329522e+00 -1.4618067e-03 4.5440667e-02
1.5928956e+00 4.4878333e-03 3.6821200e-02
1.5539600e+00 1.1377800e-02 2.7870000e-02
1.5539600e+00 1.1377800e-02 2.7870000e-02
1.5146344e+00 1.6828233e-02 1.7259217e-02
1.4750644e+00 2.2806133e-02 6.5930533e-03
1.4352500e+00 2.9311500e-02 -4.1284900e-03
1.3951911e+00 3.6344333e-02 -1.4905413e-02
1.3548878e+00 4.3904633e-02 -2.5737717e-02
1.3143400e+00 5.1992400e-02 -3.6625400e-02
1.3143400e+00 5.1992400e-02 -3.6625400e-02
1.2764600e+00 5.8552000e-02 -4.6699333e-02
1.2362533e+00 6.6464333e-02 -5.5614867e-02
1.1937200e+00 7.5729400e-02 -6.3372000e-02
1.1488600e+00 8.6347200e-02 -6.9970733e-02
1.1016733e+00 9.8317733e-02 -7.5411067e-02
1.0521600e+00 1.1164100e-01 -7.9693000e-02
1.0521600e+00 1.1164100e-01 -7.9693000e-02
9.9647722e-01 1.2849722e-01 -8.2110011e-02
9.4108922e-01 1.4245156e-01 -8.3504144e-02
8.8599600e-01 1.5350400e-01 -8.3875400e-02
8.3119756e-01 1.6165456e-01 -8.3223778e-02
7.7669389e-01 1.6690322e-01 -8.1549278e-02
7.2248500e-01 1.6925000e-01 -7.8851900e-02
7.2248500e-01 1.6925000e-01 -7.8851900e-02
6.6356522e-01 1.6856067e-01 -7.5426278e-02
6.0729889e-01 1.6580633e-01 -7.0438144e-02
5.5368600e-01 1.6098700e-01 -6.3887500e-02
5.0272656e-01 1.5410267e-01 -5.5774344e-02
4.5442056e-01 1.4515333e-01 -4.6098678e-02
4.0876800e-01 1.3413900e-01 -3.4860500e-02
4.0876800e-01 1.3413900e-01 -3.4860500e-02
3.6002033e-01 1.2391903e-01 -1.5490489e-02
3.1354733e-01 1.1274937e-01 2.3746444e-03
2.6934900e-01 1.0063000e-01 1.8734900e-02
2.2742533e-01 8.7560933e-02 3.3590278e-02
1.8777633e-01 7.3542167e-02 4.6940778e-02
1.5040200e-01 5.8573700e-02 5.8786400e-02
1.5040200e-01 5.8573700e-02 5.8786400e-02
1.3197570e-01 4.9938933e-02 5.0224564e-02
1.1223067e-01 3.9596200e-02 4.1161431e-02
9.1166900e-02 2.7545500e-02 3.1597000e-02
6.8784400e-02 1.3786833e-02 2.1531272e-02
4.5083167e-02 -1.6798000e-03 1.0964247e-02
2.0063200e-02 -1.8854400e-02 -1.0407500e-04
8.4467800e+00 5.3544500e-01 1.3829700e-01
8.4281056e+00 4.8910411e-01 1.5174844e-01
8.4083989e+00 4.4466311e-01 1.6487411e-01
8.3876600e+00 4.0212200e-01 1.7767400e-01
8.3658889e+00 3.6148078e-01 1.9014811e-01
8.3430856e+00 3.2273944e-01 2.0229644e-01
8.3192500e+00 2.8589800e-01 2.1411900e-01
8.3192500e+00 2.8589800e-01 2.1411900e-01
8.2975589e+00 2.5985011e-01 2.2339044e-01
8.2748089e+00 2.4052878e-01 2.3171844e-01
8.2510000e+00 2.2793400e-01 2.3910300e-01
8.2261322e+00 2.2206578e-01 2.4554411e-01
8.2002056e+00 2.2292411e-01 2.5104178e-01
8.1732200e+00 2.3050900e-01 2.5559600e-01
8.1732200e+00 2.3050900e-01 2.5559600e-01
8.1476744e+00 2.3669444e-01 2.5820644e-01
8.1202044e+00 2.4392744e-01 2.6091211e-01
8.0908100e+00 2.5220800e-01 2.6371300e-01
8.0594911e+00 2.6153611e-01 2.6660911e-01
8.0262478e+00 2.7191178e-01 2.6960044e-01
7.9910800e+00 2.8333500e-01 2.7268700e-01
7.9910800e+00 2.8333500e-01 2.7268700e-01
7.9436067e+00 2.9814044e-01 2.7983444e-01
7.8980533e+00 3.0562778e-01 2.8675078e-01
7.8544200e+00 3.0579700e-01 2.9343600e-01
7.8127067e+00 2.9864811e-01 2.9989011e-01
7.7729133e+00 2.8418111e-01 3.0611311e-01
7.7350400e+00 2.6239600e-01 3.1210500e-01
7.7350400e+00 2.6239600e-01 3.1210500e-01
7.7044956e+00 2.3654289e-01 3.1086244e-01
7.6755456e+00 2.1022289e-01 3.0688878e-01
7.6481900e+00 1.8343600e-01 3.0018400e-01
7.6224289e+00 1.5618222e-01 2.9074811e-01
7.5982622e+00 1.2846156e-01 2.7858111e-01
7.5756900e+00 1.0027400e-01 2.6368300e-01
7.5756900e+00 1.0027400e-01 2.6368300e-01
7.5452944e+00 1.2928933e-01 2.6662178e-01
7.5118544e+00 1.5679533e-01 2.6812744e-01
7.4753700e+00 1.8279200e-01 2.6820000e-01
7.4358411e+00 2.0727933e-01 2.6683944e-01
7.3932678e+00 2.3025733e-01 2.6404578e-01
7.3476500e+00 2.5172600e-01 2.5981900e-01
7.3476500e+00 2.5172600e-01 2.5981900e-01
7.3022833e+00 2.6675611e-01 2.4806144e-01
7.2591500e+00 2.7577444e-01 2.3424144e-01
7.2182500e+00 2.7878100e-01 2.1835900e-01
7.1795833e+00 2.7577578e-01 2.0041411e-01
7.1431500e+00 2.6675878e-01 1.8040678e-01
7.1089500e+00 2.5173000e-01 1.5833700e-01
7.1089500e+00 2.5173000e-01 1.5833700e-01
7.0775322e+00 2.2908789e-01 1.4307678e-01
7.0437322e+00 2.0612589e-01 1.2691444e-01
7.0075500e+00 1.8284400e-01 1.0985000e-01
6.9689856e+00 1.5924222e-01 9.1883444e-02
6.9280389e+00 1.3532056e-01 7.3014778e-02
6.8847100e+00 1.1107900e-01 5.3244000e-02
6.8847100e+00 1.1107900e-01 5.3244000e-02
6.8327733e+00 8.9860122e-02 2.9236200e-02
6.7779600e+00 7.5375789e-02 7.8387000e-03
6.7202700e+00 6.7626000e-02 -1.0948500e-02
6.6597033e+00 6.6610756e-02 -2.7125400e-02
6.5962600e+00 7.2330056e-02 -4.0692000e-02
6.5299400e+00 8.4783900e-02 -5.1648300e-02
6.5299400e+00 8.4783900e-02 -5.1648300e-02
6.4666333e+00 1.0853383e-01 -5.4704389e-02
6.4089200e+00 1.3181587e-01 -5.6988922e-02
6.3568000e+00 1.5463000e-01 -5.8501900e-02
6.3102733e+00 1.7697623e-01 -5.9243322e-02
6.2693400e+00 1.9885457e-01 -5.9213189e-02
6.2340000e+00 2.2026500e-01 -5.8411500e-02
6.3625400e+00 2.8031800e-01 -9.9370600e-02
6.3489056e+00 2.6445111e-01 -9.5267333e-02
6.3321556e+00 2.5092744e-01 -9.0074767e-02
6.3122900e+00 2.3974700e-01 -8.3792900e-02
6.2893089e+00 2.3090978e-01 -7.6421733e-02
6.2632122e+00 2.2441578e-01 -6.7961267e-02
6.2340000e+00 2.2026500e-01 -5.8411500e-02
8.0443500e+00 5.7889500e-01 1.5525000e-01
8.0179011e+00 5.6092800e-01 1.3872652e-01
7.9908111e+00 5.4237233e-01 1.2091619e-01
7.9630800e+00 5.2322800e-01 1.0181900e-01
7.9347078e+00 5.0349500e-01 8.1434956e-02
7.9056944e+00 4.8317333e-01 5.9764056e-02
7.8760400e+00 4.6226300e-01 3.6806300e-02
7.8760400e+00 4.6226300e-01 3.6806300e-02
7.8460500e+00 4.3503000e-01 1.2765100e-02
7.8168233e+00 4.0916900e-01 -5.1523000e-03
7.7883600e+00 3.8468000e-01 -1.6945900e-02
7.7606600e+00 3.6156300e-01 -2.2615700e-02
7.7337233e+00 3.3981800e-01 -2.2161700e-02
7.7075500e+00 3.1944500e-01 -1.5583900e-02
7.7075500e+00 3.1944500e-01 -1.5583900e-02
7.6701178e+00 3.1440500e-01 1.2519389e-02
7.6305511e+00 3.1186467e-01 4.0350889e-02
7.5888500e+00 3.1182400e-01 6.7910600e-02
7.5450144e+00 3.1428300e-01 9.5198522e-02
7.4990444e+00 3.1924167e-01 1.2221466e-01
7.4509400e+00 3.2670000e-01 1.4895900e-01
7.4509400e+00 3.2670000e-01 1.4895900e-01
7.4048044e+00 3.3527144e-01 1.7535622e-01
7.3563511e+00 3.4117611e-01 2.0088622e-01
7.3055800e+00 3.4441400e-01 2.2554900e-01
7.2524911e+00 3.4498511e-01 2.4934456e-01
7.1970844e+00 3.4288944e-01 2.7227289e-01
7.1393600e+00 3.3812700e-01 2.9433400e-01
7.1393600e+00 3.3812700e-01 2.9433400e-01
7.0744622e+00 3.1261400e-01 2.8013107e-01
7.0059656e+00 2.9330133e-01 2.5607373e-01
6.9338700e+00 2.8018900e-01 2.2216200e-01
6.8581756e+00 2.7327700e-01 1.7839587e-01
6.7788822e+00 2.7256533e-01 1.2477533e-01
6.6959900e+00 2.7805400e-01 6.1300400e-02
6.6959900e+00 2.7805400e-01 6.1300400e-02
6.6234900e+00 2.8525744e-01 1.5202178e-02
6.5577600e+00 2.8973044e-01 -2.3168156e-02
6.4988000e+00 2.9147300e-01 -5.3810600e-02
6.4466100e+00 2.9048511e-01 -7.6725156e-02
6.4011900e+00 2.8676678e-01 -9.1911822e-02
6.3625400e+00 2.8031800e-01 -9.9370600e-02
4.7029000e+00 5.2935000e-01 -9.7010500e-02
4.7440656e+00 4.9341533e-01 -8.7664211e-02
4.7926289e+00 4.5846000e-01 -8.1571644e-02
4.8485900e+00 4.2448400e-01 -7.8732800e-02
4.9119489e+00 3.9148733e-01 -7.9147678e-02
4.9827056e+00 3.5947000e-01 -8.2816278e-02
5.0608600e+00 3.2843200e-01 -8.9738600e-02
5.0608600e+00 3.2843200e-01 -8.9738600e-02
5.1460100e+00 3.1995744e-01 -8.9779367e-02
5.2319233e+00 3.1928511e-01 -8.7850600e-02
5.3186000e+00 3.2641500e-01 -8.3952300e-02
5.4060400e+00 3.4134711e-01 -7.8084467e-02
5.4942433e+00 3.6408144e-01 -7.0247100e-02
5.5832100e+00 3.9461800e-01 -6.0440200e-02
5.5832100e+00 3.9461800e-01 -6.0440200e-02
5.6645978e+00 4.2651422e-01 -5.6832033e-02
5.7450544e+00 4.5087189e-01 -5.4559200e-02
5.8245800e+00 4.6769100e-01 -5.3621700e-02
5.9031744e+00 4.7697156e-01 -5.4019533e-02
5.9808378e+00 4.7871356e-01 -5.5752700e-02
6.0575700e+00 4.7291700e-01 -5.8821200e-02
6.0575700e+00 4.7291700e-01 -5.8821200e-02
6.1254567e+00 4.4454300e-01 -6.5434767e-02
6.1865200e+00 4.1467867e-01 -7.2106200e-02
6.2407600e+00 3.8332400e-01 -7.8835500e-02
6.2881767e+00 3.5047900e-01 -8.5622667e-02
6.3287700e+00 3.1614367e-01 -9.2467700e-02
6.3625400e+00 2.8031800e-01 -9.9370600e-02