# vtk DataFile Version 2.0
test
ASCII
DATASET POLYDATA
POINTS 4361 float
4.9435322e+00 6.9959225e+00 1.1858816e+01
5.0546123e+00 7.0550121e+00 1.1733212e+01
5.1675899e+00 7.1131717e+00 1.1608977e+01
5.2824650e+00 7.1704011e+00 1.1486113e+01
5.3992377e+00 7.2267003e+00 1.1364619e+01
5.5179080e+00 7.2820694e+00 1.1244495e+01
5.6384758e+00 7.3365084e+00 1.1125741e+01
5.6384758e+00 7.3365084e+00 1.1125741e+01
5.7627290e+00 7.3966944e+00 1.1010863e+01
5.8932058e+00 7.4553251e+00 1.0904365e+01
6.0299065e+00 7.5124005e+00 1.0806248e+01
6.1728308e+00 7.5679207e+00 1.0716512e+01
6.3219788e+00 7.6218856e+00 1.0635156e+01
6.4773506e+00 7.6742951e+00 1.0562182e+01
6.4773506e+00 7.6742951e+00 1.0562182e+01
6.6435447e+00 7.7213585e+00 1.0510922e+01
6.8117685e+00 7.7658878e+00 1.0474020e+01
6.9820220e+00 7.8078830e+00 1.0451475e+01
7.1543053e+00 7.8473442e+00 1.0443287e+01
7.3286183e+00 7.8842713e+00 1.0449455e+01
7.5049611e+00 7.9186644e+00 1.0469981e+01
7.5049611e+00 7.9186644e+00 1.0469981e+01
7.6794834e+00 7.9488009e+00 1.0493551e+01
7.8536778e+00 7.9766628e+00 1.0520869e+01
8.0275442e+00 8.0022502e+00 1.0551936e+01
8.2010826e+00 8.0255630e+00 1.0586752e+01
8.3742931e+00 8.0466013e+00 1.0625316e+01
8.5471756e+00 8.0653651e+00 1.0667629e+01
8.5471756e+00 8.0653651e+00 1.0667629e+01
8.7199910e+00 8.0820735e+00 1.0711048e+01
8.8937152e+00 8.0966189e+00 1.0750436e+01
9.0683482e+00 8.1090011e+00 1.0785793e+01
9.2438901e+00 8.1192201e+00 1.0817119e+01
9.4203408e+00 8.1272761e+00 1.0844413e+01
9.5977003e+00 8.1331689e+00 1.0867677e+01
9.5977003e+00 8.1331689e+00 1.0867677e+01
9.7778093e+00 8.1361315e+00 1.0882145e+01
9.9561956e+00 8.1369535e+00 1.0882534e+01
1.0132859e+01 8.1356347e+00 1.0868845e+01
1.0307800e+01 8.1321753e+00 1.0841077e+01
1.0481019e+01 8.1265752e+00 1.0799231e+01
1.0652515e+01 8.1188344e+00 1.0743306e+01
1.0652515e+01 8.1188344e+00 1.0743306e+01
1.0816772e+01 8.1086649e+00 1.0669205e+01
1.0972683e+01 8.0988088e+00 1.0583403e+01
1.1120247e+01 8.0892662e+00 1.0485900e+01
1.1259464e+01 8.0800372e+00 1.0376695e+01
1.1390334e+01 8.0711217e+00 1.0255788e+01
1.1512858e+01 8.0625196e+00 1.0123181e+01
1.1512858e+01 8.0625196e+00 1.0123181e+01
1.1622717e+01 8.0689463e+00 9.9821469e+00
1.1731022e+01 8.0732460e+00 9.8398808e+00
1.1837774e+01 8.0754188e+00 9.6963823e+00
1.1942971e+01 8.0754646e+00 9.5516515e+00
1.2046615e+01 8.0733835e+00 9.4056883e+00
1.2148706e+01 8.0691754e+00 9.2584928e+00
1.2148706e+01 8.0691754e+00 9.2584928e+00
1.2044933e+01 7.9979375e+00 9.1232087e+00
1.1941420e+01 7.9238260e+00 8.9895029e+00
1.1838168e+01 7.8468408e+00 8.8573754e+00
1.1735176e+01 7.7669820e+00 8.7268263e+00
1.1632444e+01 7.6842496e+00 8.5978556e+00
1.1529973e+01 7.5986436e+00 8.4704631e+00
1.1529973e+01 7.5986436e+00 8.4704631e+00
1.1427810e+01 7.5260588e+00 8.3348233e+00
1.1329538e+01 7.4524829e+00 8.1972290e+00
1.1235159e+01 7.3779157e+00 8.0576803e+00
1.1144671e+01 7.3023573e+00 7.9161771e+00
1.1058075e+01 7.2258077e+00 7.7727195e+00
1.0975370e+01 7.1482670e+00 7.6273075e+00
1.0975370e+01 7.1482670e+00 7.6273075e+00
1.0899461e+01 7.0708533e+00 7.4773803e+00
1.0831587e+01 6.9912478e+00 7.3258176e+00
1.0771749e+01 6.9094505e+00 7.1726193e+00
1.0719946e+01 6.8254612e+00 7.0177853e+00
1.0676179e+01 6.7392801e+00 6.8613158e+00
1.0640447e+01 6.6509071e+00 6.7032106e+00
1.0640447e+01 6.6509071e+00 6.7032106e+00
1.0617061e+01 6.5602072e+00 6.5444185e+00
1.0603895e+01 6.4680460e+00 6.3865516e+00
1.0600949e+01 6.3744235e+00 6.2296101e+00
1.0608223e+01 6.2793397e+00 6.0735940e+00
1.0625718e+01 6.1827946e+00 5.9185032e+00
1.0653433e+01 6.0847883e+00 5.7643377e+00
1.0653433e+01 6.0847883e+00 5.7643377e+00
1.0689665e+01 5.9859395e+00 5.6134572e+00
1.0732061e+01 5.8859278e+00 5.4656834e+00
1.0780621e+01 5.7847533e+00 5.3210162e+00
1.0835345e+01 5.6824157e+00 5.1794557e+00
1.0896234e+01 5.5789153e+00 5.0410018e+00
1.0963286e+01 5.4742519e+00 4.9056546e+00
1.0963286e+01 5.4742519e+00 4.9056546e+00
1.1033268e+01 5.3693327e+00 4.7726393e+00
1.1104835e+01 5.2634914e+00 4.6412936e+00
1.1177987e+01 5.1567281e+00 4.5116176e+00
1.1252724e+01 5.0490426e+00 4.3836113e+00
1.1329046e+01 4.9404351e+00 4.2572747e+00
1.1406953e+01 4.8309055e+00 4.1326077e+00
1.1406953e+01 4.8309055e+00 4.1326077e+00
1.1483885e+01 4.7192272e+00 4.0094497e+00
1.1558259e+01 4.6049830e+00 3.8870556e+00
1.1630075e+01 4.4881727e+00 3.7654254e+00
1.1699334e+01 4.3687964e+00 3.6445593e+00
1.1766036e+01 4.2468540e+00 3.5244571e+00
1.1830179e+01 4.1223457e+00 3.4051189e+00
1.1830179e+01 4.1223457e+00 3.4051189e+00
1.1889609e+01 3.9949362e+00 3.2858779e+00
1.1941984e+01 3.8651464e+00 3.1668215e+00
1.1987305e+01 3.7329765e+00 3.0479498e+00
1.2025571e+01 3.5984264e+00 2.9292628e+00
1.2056784e+01 3.4614960e+00 2.8107605e+00
1.2080942e+01 3.3221854e+00 2.6924428e+00
1.2080942e+01 3.3221854e+00 2.6924428e+00
1.2097068e+01 3.1793627e+00 2.5759236e+00
1.2103586e+01 3.0356435e+00 2.4611114e+00
1.2100498e+01 2.8910278e+00 2.3480064e+00
1.2087802e+01 2.7455155e+00 2.2366085e+00
1.2065500e+01 2.5991067e+00 2.1269177e+00
1.2033590e+01 2.4518013e+00 2.0189340e+00
1.2033590e+01 2.4518013e+00 2.0189340e+00
1.1991099e+01 2.3074851e+00 1.9109697e+00
1.1941515e+01 2.1643562e+00 1.8053637e+00
1.1884839e+01 2.0224146e+00 1.7021159e+00
1.1821069e+01 1.8816602e+00 1.6012264e+00
1.1750206e+01 1.7420932e+00 1.5026951e+00
1.1672250e+01 1.6037135e+00 1.4065220e+00
1.1672250e+01 1.6037135e+00 1.4065220e+00
1.1586384e+01 1.4677026e+00 1.3140510e+00
1.1497170e+01 1.3327627e+00 1.2236027e+00
1.1404606e+01 1.1988939e+00 1.1351772e+00
1.1308694e+01 1.0660962e+00 1.0487743e+00
1.1209432e+01 9.3436960e-01 9.6439420e-01
1.1106822e+01 8.0371407e-01 8.8203677e-01
1.1106822e+01 8.0371407e-01 8.8203677e-01
1.1004416e+01 6.7146228e-01 8.0109154e-01
1.0901443e+01 5.3940946e-01 7.2070687e-01
1.0797904e+01 4.0755561e-01 6.4088278e-01
1.0693798e+01 2.7590074e-01 5.6161925e-01
1.0589126e+01 1.4444483e-01 4.8291629e-01
1.0483887e+01 1.3187900e-02 4.0477390e-01
2.6904900e+00 5.9167551e+00 1.1733020e+01
2.6546597e+00 5.8731827e+00 1.1549902e+01
2.6191197e+00 5.8260241e+00 1.1367754e+01
2.5838698e+00 5.7752795e+00 1.1186575e+01
2.5489101e+00 5.7209489e+00 1.1006365e+01
2.5142406e+00 5.6630321e+00 1.0827125e+01
2.4798612e+00 5.6015293e+00 1.0648855e+01
2.4798612e+00 5.6015293e+00 1.0648855e+01
2.4545163e+00 5.5503979e+00 1.0465565e+01
2.4359041e+00 5.4970995e+00 1.0282703e+01
2.4240246e+00 5.4416341e+00 1.0100268e+01
2.4188778e+00 5.3840017e+00 9.9182591e+00
2.4204638e+00 5.3242023e+00 9.7366777e+00
2.4287826e+00 5.2622359e+00 9.5555232e+00
2.4287826e+00 5.2622359e+00 9.5555232e+00
2.4495567e+00 5.1949576e+00 9.3763809e+00
2.4799917e+00 5.1243963e+00 9.2014935e+00
2.5200876e+00 5.0505520e+00 9.0308610e+00
2.5698443e+00 4.9734245e+00 8.8644833e+00
2.6292618e+00 4.8930140e+00 8.7023605e+00
2.6983402e+00 4.8093205e+00 8.5444925e+00
2.6983402e+00 4.8093205e+00 8.5444925e+00
2.7823413e+00 4.7215255e+00 8.3956367e+00
2.8760948e+00 4.6321444e+00 8.2562995e+00
2.9796006e+00 4.5411773e+00 8.1264812e+00
3.0928588e+00 4.4486241e+00 8.0061815e+00
3.2158693e+00 4.3544850e+00 7.8954006e+00
3.3486323e+00 4.2587597e+00 7.7941384e+00
3.3486323e+00 4.2587597e+00 7.7941384e+00
3.4806698e+00 4.1634404e+00 7.6953795e+00
3.6134564e+00 4.0671170e+00 7.5988232e+00
3.7469922e+00 3.9697894e+00 7.5044695e+00
3.8812772e+00 3.8714576e+00 7.4123184e+00
4.0163113e+00 3.7721217e+00 7.3223699e+00
4.1520945e+00 3.6717816e+00 7.2346240e+00
4.1520945e+00 3.6717816e+00 7.2346240e+00
4.2893603e+00 3.5693324e+00 7.1509426e+00
4.4233719e+00 3.4643041e+00 7.0656531e+00
4.5541292e+00 3.3566967e+00 6.9787556e+00
4.6816324e+00 3.2465100e+00 6.8902499e+00
4.8058813e+00 3.1337442e+00 6.8001362e+00
4.9268759e+00 3.0183992e+00 6.7084143e+00
4.9268759e+00 3.0183992e+00 6.7084143e+00
5.0421841e+00 2.9002483e+00 6.6111454e+00
5.1477554e+00 2.7792839e+00 6.5087814e+00
5.2435898e+00 2.6555058e+00 6.4013224e+00
5.3296872e+00 2.5289141e+00 6.2887683e+00
5.4060477e+00 2.3995089e+00 6.1711191e+00
5.4726712e+00 2.2672900e+00 6.0483749e+00
5.4726712e+00 2.2672900e+00 6.0483749e+00
5.5213780e+00 2.1324987e+00 5.9193285e+00
5.5575772e+00 1.9983253e+00 5.7879742e+00
5.5812688e+00 1.8647697e+00 5.6543120e+00
5.5924527e+00 1.7318320e+00 5.5183418e+00
5.5911290e+00 1.5995121e+00 5.3800638e+00
5.5772976e+00 1.4678101e+00 5.2394779e+00
5.5772976e+00 1.4678101e+00 5.2394779e+00
5.5544655e+00 1.3405608e+00 5.0969688e+00
5.5257490e+00 1.2150145e+00 4.9544689e+00
5.4911480e+00 1.0911713e+00 4.8119783e+00
5.4506626e+00 9.6903114e-01 4.6694969e+00
5.4042927e+00 8.4859401e-01 4.5270247e+00
5.3520384e+00 7.2985992e-01 4.3845617e+00
5.3520384e+00 7.2985992e-01 4.3845617e+00
5.2979742e+00 6.0864513e-01 4.2454704e+00
5.2426912e+00 4.8748831e-01 4.1066833e+00
5.1861894e+00 3.6638945e-01 3.9682004e+00
5.1284688e+00 2.4534856e-01 3.8300219e+00
5.0695295e+00 1.2436564e-01 3.6921476e+00
5.0093714e+00 3.4406900e-03 3.5545775e+00
1.4708600e+00 5.7224764e+00 1.3885461e+01
1.5397997e+00 5.8294862e+00 1.3736035e+01
1.6210900e+00 5.9355428e+00 1.3596325e+01
1.7147311e+00 6.0406462e+00 1.3466331e+01
1.8207228e+00 6.1447963e+00 1.3346052e+01
1.9390652e+00 6.2479932e+00 1.3235490e+01
2.0697582e+00 6.3502369e+00 1.3134644e+01
2.0697582e+00 6.3502369e+00 1.3134644e+01
2.2325330e+00 6.4389988e+00 1.3075200e+01
2.4014203e+00 6.5173566e+00 1.3029445e+01
2.5764200e+00 6.5853104e+00 1.2997378e+01
2.7575322e+00 6.6428601e+00 1.2978999e+01
2.9447569e+00 6.6900058e+00 1.2974309e+01
3.1380940e+00 6.7267474e+00 1.2983307e+01
3.1380940e+00 6.7267474e+00 1.2983307e+01
3.3324591e+00 6.7567692e+00 1.2992299e+01
3.5229726e+00 6.7853604e+00 1.2983148e+01
3.7096348e+00 6.8125209e+00 1.2955855e+01
3.8924455e+00 6.8382508e+00 1.2910419e+01
4.0714047e+00 6.8625501e+00 1.2846841e+01
4.2465125e+00 6.8854188e+00 1.2765121e+01
4.2465125e+00 6.8854188e+00 1.2765121e+01
4.3921737e+00 6.9103501e+00 1.2638737e+01
4.5260385e+00 6.9326758e+00 1.2502486e+01
4.6481067e+00 6.9523959e+00 1.2356369e+01
4.7583784e+00 6.9695104e+00 1.2200385e+01
[...]
POINT_DATA 4361
VECTORS U float
1.6466300e+00 5.3307400e-01 -8.4409900e-03
1.6618744e+00 5.2066756e-01 -3.5158333e-04
1.6763811e+00 5.0700822e-01 6.7886800e-03
1.6901500e+00 4.9209600e-01 1.2979800e-02
1.7031811e+00 4.7593089e-01 1.8221777e-02
1.7154744e+00 4.5851289e-01 2.2514610e-02
1.7270300e+00 4.3984200e-01 2.5858300e-02
1.7270300e+00 4.3984200e-01 2.5858300e-02
1.7360933e+00 4.2572022e-01 2.8854956e-02
1.7441900e+00 4.1051089e-01 3.0106956e-02
1.7513200e+00 3.9421400e-01 2.9614300e-02
1.7574833e+00 3.7682956e-01 2.7376989e-02
1.7626800e+00 3.5835756e-01 2.3395022e-02
1.7669100e+00 3.3879800e-01 1.7668400e-02
1.7669100e+00 3.3879800e-01 1.7668400e-02
1.7734633e+00 3.1659278e-01 1.5110811e-02
1.7793000e+00 2.9571644e-01 1.4137444e-02
1.7844200e+00 2.7616900e-01 1.4748300e-02
1.7888233e+00 2.5795044e-01 1.6943378e-02
1.7925100e+00 2.4106078e-01 2.0722678e-02
1.7954800e+00 2.2550000e-01 2.6086200e-02
1.7954800e+00 2.2550000e-01 2.6086200e-02
1.7980533e+00 2.1028922e-01 2.6227567e-02
1.8002433e+00 1.9619589e-01 2.6442033e-02
1.8020500e+00 1.8322000e-01 2.6729600e-02
1.8034733e+00 1.7136156e-01 2.7090267e-02
1.8045133e+00 1.6062056e-01 2.7524033e-02
1.8051700e+00 1.5099700e-01 2.8030900e-02
1.8051700e+00 1.5099700e-01 2.8030900e-02
1.8053089e+00 1.4194111e-01 2.9804500e-02
1.8053556e+00 1.3347844e-01 3.1598967e-02
1.8053100e+00 1.2560900e-01 3.3414300e-02
1.8051722e+00 1.1833278e-01 3.5250500e-02
1.8049422e+00 1.1164978e-01 3.7107567e-02
1.8046200e+00 1.0556000e-01 3.8985500e-02
1.8046200e+00 1.0556000e-01 3.8985500e-02
1.8043411e+00 9.9396867e-02 4.0791122e-02
1.8039044e+00 9.4106867e-02 4.1711956e-02
1.8033100e+00 8.9690000e-02 4.1748000e-02
1.8025578e+00 8.6146267e-02 4.0899256e-02
1.8016478e+00 8.3475667e-02 3.9165722e-02
1.8005800e+00 8.1678200e-02 3.6547400e-02
1.8005800e+00 8.1678200e-02 3.6547400e-02
1.7997667e+00 8.0607167e-02 3.4658454e-02
1.7974367e+00 8.1478600e-02 3.1321888e-02
1.7935900e+00 8.4292500e-02 2.6537700e-02
1.7882267e+00 8.9048867e-02 2.0305891e-02
1.7813467e+00 9.5747700e-02 1.2626461e-02
1.7729500e+00 1.0438900e-01 3.4994100e-03
1.7729500e+00 1.0438900e-01 3.4994100e-03
1.7581978e+00 1.2849233e-01 -9.8781833e-03
1.7445311e+00 1.5076833e-01 -2.2170253e-02
1.7319500e+00 1.7121700e-01 -3.3376800e-02
1.7204544e+00 1.8983833e-01 -4.3497823e-02
1.7100444e+00 2.0663233e-01 -5.2533323e-02
1.7007200e+00 2.2159900e-01 -6.0483300e-02
1.7007200e+00 2.2159900e-01 -6.0483300e-02
1.6918089e+00 2.1400900e-01 -5.1527544e-02
1.6818156e+00 2.0406000e-01 -4.0384278e-02
1.6707400e+00 1.9175200e-01 -2.7053500e-02
1.6585822e+00 1.7708500e-01 -1.1535211e-02
1.6453422e+00 1.6005900e-01 6.1705889e-03
1.6310200e+00 1.4067400e-01 2.6063900e-02
1.6310200e+00 1.4067400e-01 2.6063900e-02
1.6144900e+00 1.3536122e-01 3.9046033e-02
1.5970833e+00 1.3061589e-01 5.1632567e-02
1.5788000e+00 1.2643800e-01 6.3823500e-02
1.5596400e+00 1.2282756e-01 7.5618833e-02
1.5396033e+00 1.1978456e-01 8.7018567e-02
1.5186900e+00 1.1730900e-01 9.8022700e-02
1.5186900e+00 1.1730900e-01 9.8022700e-02
1.4974978e+00 1.1724611e-01 1.0679306e-01
1.4750411e+00 1.1703144e-01 1.1467649e-01
1.4513200e+00 1.1666500e-01 1.2167300e-01
1.4263344e+00 1.1614678e-01 1.2778259e-01
1.4000844e+00 1.1547678e-01 1.3300526e-01
1.3725700e+00 1.1465500e-01 1.3734100e-01
1.3725700e+00 1.1465500e-01 1.3734100e-01
1.3450256e+00 1.1341674e-01 1.4025022e-01
1.3178222e+00 1.1169474e-01 1.4169789e-01
1.2909600e+00 1.0948900e-01 1.4168400e-01
1.2644389e+00 1.0679951e-01 1.4020856e-01
1.2382589e+00 1.0362628e-01 1.3727156e-01
1.2124200e+00 9.9969300e-02 1.3287300e-01
1.2124200e+00 9.9969300e-02 1.3287300e-01
1.1869544e+00 9.5572533e-02 1.2768211e-01
1.1622811e+00 9.0406033e-02 1.2242044e-01
1.1384000e+00 8.4469800e-02 1.1708800e-01
1.1153111e+00 7.7763833e-02 1.1168478e-01
1.0930144e+00 7.0288133e-02 1.0621078e-01
1.0715100e+00 6.2042700e-02 1.0066600e-01
1.0715100e+00 6.2042700e-02 1.0066600e-01
1.0500689e+00 5.3963956e-02 9.4642811e-02
1.0286989e+00 4.5971456e-02 8.8293478e-02
1.0074000e+00 3.8065200e-02 8.1618000e-02
9.8617222e-01 3.0245189e-02 7.4616378e-02
9.6501556e-01 2.2511422e-02 6.7288611e-02
9.4393000e-01 1.4863900e-02 5.9634700e-02
9.4393000e-01 1.4863900e-02 5.9634700e-02
9.2187289e-01 6.5142889e-03 5.2217411e-02
8.9877989e-01 -2.2974444e-03 4.4822644e-02
8.7465100e-01 -1.1571300e-02 3.7450400e-02
8.4948622e-01 -2.1307278e-02 3.0100678e-02
8.2328556e-01 -3.1505378e-02 2.2773478e-02
7.9604900e-01 -4.2165600e-02 1.5468800e-02
7.9604900e-01 -4.2165600e-02 1.5468800e-02
7.6697267e-01 -5.2893822e-02 8.2082278e-03
7.3622300e-01 -6.2815922e-02 1.1614844e-03
7.0380000e-01 -7.1931900e-02 -5.6714300e-03
6.6970367e-01 -8.0241756e-02 -1.2290516e-02
6.3393400e-01 -8.7745489e-02 -1.8695772e-02
5.9649100e-01 -9.4443100e-02 -2.4887200e-02
5.9649100e-01 -9.4443100e-02 -2.4887200e-02
5.5916911e-01 -1.0061894e-01 -2.8840956e-02
5.2212811e-01 -1.0522724e-01 -3.1727689e-02
4.8536800e-01 -1.0826800e-01 -3.3547400e-02
4.4888878e-01 -1.0974121e-01 -3.4300089e-02
4.1269044e-01 -1.0964688e-01 -3.3985756e-02
3.7677300e-01 -1.0798500e-01 -3.2604400e-02
3.7677300e-01 -1.0798500e-01 -3.2604400e-02
3.4265644e-01 -1.0239181e-01 -3.2973000e-02
3.1075078e-01 -9.6119844e-02 -3.3079100e-02
2.8105600e-01 -8.9169100e-02 -3.2922700e-02
2.5357211e-01 -8.1539578e-02 -3.2503800e-02
2.2829911e-01 -7.3231278e-02 -3.1822400e-02
2.0523700e-01 -6.4244200e-02 -3.0878500e-02
2.0523700e-01 -6.4244200e-02 -3.0878500e-02
1.8133969e-01 -5.4879278e-02 -2.8772878e-02
1.5886236e-01 -4.5803911e-02 -2.6377544e-02
1.3780500e-01 -3.7018100e-02 -2.3692500e-02
1.1816762e-01 -2.8521844e-02 -2.0717744e-02
9.9950222e-02 -2.0315144e-02 -1.7453278e-02
8.3152800e-02 -1.2398000e-02 -1.3899100e-02
8.3152800e-02 -1.2398000e-02 -1.3899100e-02
6.9075144e-02 -7.2753722e-03 -1.0139402e-02
5.5773411e-02 -2.4960689e-03 -6.4039722e-03
4.3247600e-02 1.9399100e-03 -2.6928100e-03
3.1497711e-02 6.0325644e-03 9.9408444e-04
2.0523744e-02 9.7818944e-03 4.6567111e-03
1.0325700e-02 1.3187900e-02 8.2950700e-03
1.4723700e+00 7.0524300e-01 8.8464500e-02
1.4591267e+00 6.9790178e-01 9.2867611e-02
1.4438733e+00 6.8756078e-01 9.8320778e-02
1.4266100e+00 6.7422000e-01 1.0482400e-01
1.4073367e+00 6.5787944e-01 1.1237728e-01
1.3860533e+00 6.3853911e-01 1.2098061e-01
1.3627600e+00 6.1619900e-01 1.3063400e-01
1.3627600e+00 6.1619900e-01 1.3063400e-01
1.3440089e+00 6.0543478e-01 1.3587211e-01
1.3240289e+00 5.9435211e-01 1.4048211e-01
1.3028200e+00 5.8295100e-01 1.4446400e-01
1.2803822e+00 5.7123144e-01 1.4781778e-01
1.2567156e+00 5.5919344e-01 1.5054344e-01
1.2318200e+00 5.4683700e-01 1.5264100e-01
1.2318200e+00 5.4683700e-01 1.5264100e-01
1.2066344e+00 5.3196889e-01 1.5430289e-01
1.1794744e+00 5.1601056e-01 1.5417222e-01
1.1503400e+00 4.9896200e-01 1.5224900e-01
1.1192311e+00 4.8082322e-01 1.4853322e-01
1.0861478e+00 4.6159422e-01 1.4302489e-01
1.0510900e+00 4.4127500e-01 1.3572400e-01
1.0510900e+00 4.4127500e-01 1.3572400e-01
1.0200618e+00 4.1841156e-01 1.2745822e-01
9.9267478e-01 3.9526056e-01 1.2156556e-01
9.6892900e-01 3.7182200e-01 1.1804600e-01
9.4882444e-01 3.4809589e-01 1.1689956e-01
9.3236111e-01 3.2408222e-01 1.1812622e-01
9.1953900e-01 2.9978100e-01 1.2172600e-01
9.1953900e-01 2.9978100e-01 1.2172600e-01
9.0366433e-01 2.7687678e-01 1.2233578e-01
8.8744833e-01 2.5461611e-01 1.2199544e-01
8.7089100e-01 2.3299900e-01 1.2070500e-01
8.5399233e-01 2.1202544e-01 1.1846444e-01
8.3675233e-01 1.9169544e-01 1.1527378e-01
8.1917100e-01 1.7200900e-01 1.1113300e-01
8.1917100e-01 1.7200900e-01 1.1113300e-01
8.0357778e-01 1.5226033e-01 1.0997592e-01
7.8694278e-01 1.3282733e-01 1.0796492e-01
7.6926600e-01 1.1371000e-01 1.0510000e-01
7.5054744e-01 9.4908333e-02 1.0138116e-01
7.3078711e-01 7.6422333e-02 9.6808389e-02
7.0998500e-01 5.8252000e-02 9.1381700e-02
7.0998500e-01 5.8252000e-02 9.1381700e-02
6.8704644e-01 4.1235922e-02 8.3286811e-02
6.6179544e-01 2.5425122e-02 7.4434811e-02
6.3423200e-01 1.0819600e-02 6.4825700e-02
6.0435611e-01 -2.5806444e-03 5.4459478e-02
5.7216778e-01 -1.4775611e-02 4.3336144e-02
5.3766700e-01 -2.5765300e-02 3.1455700e-02
5.3766700e-01 -2.5765300e-02 3.1455700e-02
4.9766711e-01 -3.4712411e-02 1.9991022e-02
4.5772111e-01 -4.1484444e-02 1.0285729e-02
4.1782900e-01 -4.6081400e-02 2.3398200e-03
3.7799078e-01 -4.8503278e-02 -3.8467044e-03
3.3820644e-01 -4.8750078e-02 -8.2738444e-03
2.9847600e-01 -4.6821800e-02 -1.0941600e-02
2.9847600e-01 -4.6821800e-02 -1.0941600e-02
2.6283856e-01 -4.1830718e-02 -1.3829167e-02
2.2944022e-01 -3.6329518e-02 -1.5998633e-02
1.9828100e-01 -3.0318200e-02 -1.7450000e-02
1.6936089e-01 -2.3796764e-02 -1.8183267e-02
1.4267989e-01 -1.6765211e-02 -1.8198433e-02
1.1823800e-01 -9.2235400e-03 -1.7495500e-02
1.1823800e-01 -9.2235400e-03 -1.7495500e-02
9.6395927e-02 -5.7009722e-03 -1.3848080e-02
7.5626260e-02 -2.7431496e-03 -9.9577900e-03
5.5929000e-02 -3.5007200e-04 -5.8246300e-03
3.7304147e-02 1.4782604e-03 -1.4486000e-03
1.9751700e-02 2.7418478e-03 3.1703000e-03
3.2716600e-03 3.4406900e-03 8.0320700e-03
1.4708600e+00 7.5277200e-01 -3.4321400e-02
1.4891022e+00 7.5670767e-01 -2.4360611e-02
1.5063322e+00 7.5825467e-01 -1.4827138e-02
1.5225500e+00 7.5741300e-01 -5.7209800e-03
1.5377556e+00 7.5418267e-01 2.9578622e-03
1.5519489e+00 7.4856367e-01 1.1209389e-02
1.5651300e+00 7.4055600e-01 1.9033600e-02
1.5651300e+00 7.4055600e-01 1.9033600e-02
1.5761111e+00 7.2485389e-01 2.3650600e-02
1.5861178e+00 7.0753622e-01 2.5876767e-02
1.5951500e+00 6.8860300e-01 2.5712100e-02
1.6032078e+00 6.6805422e-01 2.3156600e-02
1.6102911e+00 6.4588989e-01 1.8210267e-02
1.6164000e+00 6.2211000e-01 1.0873100e-02
1.6164000e+00 6.2211000e-01 1.0873100e-02
1.6219833e+00 5.9636967e-01 4.4962889e-03
1.6263467e+00 5.7406100e-01 -1.1698378e-03
1.6294900e+00 5.5518400e-01 -6.1252800e-03
1.6314133e+00 5.3973867e-01 -1.0370038e-02
1.6321167e+00 5.2772500e-01 -1.3904111e-02
1.6316000e+00 5.1914300e-01 -1.6727500e-02
1.6316000e+00 5.1914300e-01 -1.6727500e-02
1.6314189e+00 5.2062233e-01 -1.6803501e-02
1.6323122e+00 5.2243867e-01 -1.6296668e-02
1.6342800e+00 5.2459200e-01 -1.5207000e-02
1.6373222e+00 5.2708233e-01 -1.3534498e-02
1.6414389e+00 5.2990967e-01 -1.1279161e-02
1.6466300e+00 5.3307400e-01 -8.4409900e-03
1.4314600e+00 7.3719700e-01 2.4434000e-02
1.4412256e+00 7.3643189e-01 4.0307889e-02
1.4498122e+00 7.3384256e-01 5.4100922e-02
1.4572200e+00 7.2942900e-01 6.5813100e-02
1.4634489e+00 7.2319122e-01 7.5444422e-02
1.4684989e+00 7.1512922e-01 8.2994889e-02
1.4723700e+00 7.0524300e-01 8.8464500e-02
1.7007200e+00 2.2159900e-01 -6.0483300e-02
1.6842933e+00 1.9617173e-01 -5.8280022e-02
1.6673000e+00 1.7168907e-01 -5.5251256e-02
1.6497400e+00 1.4815100e-01 -5.1397000e-02
1.6316133e+00 1.2555753e-01 -4.6717256e-02
1.6129200e+00 1.0390867e-01 -4.1212022e-02
1.5936600e+00 8.3204400e-02 -3.4881300e-02
1.5936600e+00 8.3204400e-02 -3.4881300e-02
1.5831822e+00 7.0942867e-02 -3.2333961e-02
1.5710589e+00 5.9950400e-02 -2.8073894e-02
1.5572900e+00 5.0227000e-02 -2.2101100e-02
1.5418756e+00 4.1772667e-02 -1.4415578e-02
1.5248156e+00 3.4587400e-02 -5.0173278e-03
1.5061100e+00 2.8671200e-02 6.0936500e-03
1.5061100e+00 2.8671200e-02 6.0936500e-03
1.4847478e+00 2.1499900e-02 1.6057050e-02
1.4628178e+00 1.5110743e-02 2.5020700e-02
1.4403200e+00 9.5037300e-03 3.2984600e-02
1.4172544e+00 4.6788600e-03 3.9948750e-02
1.3936211e+00 6.3613333e-04 4.5913150e-02
1.3694200e+00 -2.6244500e-03 5.0877800e-02
1.3694200e+00 -2.6244500e-03 5.0877800e-02
1.3372567e+00 -5.8205944e-03 5.4443444e-02
1.3045600e+00 -8.4469778e-03 5.6395911e-02
1.2713300e+00 -1.0503600e-02 5.6735200e-02
1.2375667e+00 -1.1990461e-02 5.5461311e-02
1.2032700e+00 -1.2907561e-02 5.2574244e-02
1.1684400e+00 -1.3254900e-02 4.8074000e-02
1.1684400e+00 -1.3254900e-02 4.8074000e-02
1.1391878e+00 -1.1400736e-02 4.4613411e-02
1.1104811e+00 -8.9076622e-03 4.0827544e-02
1.0823200e+00 -5.7756800e-03 3.6716400e-02
1.0547044e+00 -2.0047889e-03 3.2279978e-02
1.0276344e+00 2.4050111e-03 2.7518278e-02
1.0011100e+00 7.4537200e-03 2.2431300e-02
1.0011100e+00 7.4537200e-03 2.2431300e-02
9.7420822e-01 1.1453544e-02 1.6150922e-02
9.4706422e-01 1.5834571e-02 9.8452222e-03
9.1967800e-01 2.0596800e-02 3.5142000e-03
8.9204956e-01 2.5740231e-02 -2.8421444e-03
8.6417889e-01 3.1264864e-02 -9.2238111e-03
8.3606600e-01 3.7170700e-02 -1.5630800e-02
8.3606600e-01 3.7170700e-02 -1.5630800e-02
8.1024333e-01 4.1931333e-02 -2.1603544e-02
7.8253433e-01 4.7604600e-02 -2.6726178e-02
7.5293900e-01 5.4190500e-02 -3.0998700e-02
7.2145733e-01 6.1689033e-02 -3.4421111e-02
6.8808933e-01 7.0100200e-02 -3.6993411e-02
6.5283500e-01 7.9424000e-02 -3.8715600e-02
6.5283500e-01 7.9424000e-02 -3.8715600e-02
6.1220722e-01 9.1426111e-02 -3.8436189e-02
5.7258622e-01 1.0116244e-01 -3.7587689e-02
5.3397200e-01 1.0863300e-01 -3.6170100e-02
4.9636456e-01 1.1383778e-01 -3.4183422e-02
4.5976389e-01 1.1677678e-01 -3.1627656e-02
4.2417000e-01 1.1745000e-01 -2.8502800e-02
4.2417000e-01 1.1745000e-01 -2.8502800e-02
3.8581756e-01 1.1555473e-01 -2.5027159e-02
3.4969156e-01 1.1224407e-01 -2.1396292e-02
3.1579200e-01 1.0751800e-01 -1.7610200e-02
2.8411889e-01 1.0137653e-01 -1.3668882e-02
2.5467222e-01 9.3819667e-02 -9.5723389e-03
2.2745200e-01 8.4847400e-02 -5.3205700e-03
2.2745200e-01 8.4847400e-02 -5.3205700e-03
2.0037066e-01 7.5990056e-02 1.3086500e-03
1.7459766e-01 6.7030289e-02 7.4279400e-03
1.5013300e-01 5.7968100e-02 1.3037300e-02
1.2697669e-01 4.8803489e-02 1.8136730e-02
1.0512872e-01 3.9536456e-02 2.2726230e-02
8.4589100e-02 3.0167000e-02 2.6805800e-02
8.4589100e-02 3.0167000e-02 2.6805800e-02
7.3949889e-02 2.5853333e-02 2.2726685e-02
6.2809856e-02 2.0547667e-02 1.8557352e-02
5.1169000e-02 1.4250000e-02 1.4297800e-02
3.9027322e-02 6.9603333e-03 9.9480298e-03
2.6384822e-02 -1.3213333e-03 5.5080411e-03
1.3241500e-02 -1.0595000e-02 9.7783400e-04
5.3495200e+00 3.6144100e-01 1.1021200e-01
5.3395189e+00 3.3202078e-01 1.1910311e-01
5.3287822e+00 3.0368178e-01 1.2778311e-01
5.3173100e+00 2.7642400e-01 1.3625200e-01
5.3051022e+00 2.5024744e-01 1.4450978e-01
5.2921589e+00 2.2515211e-01 1.5255644e-01
5.2784800e+00 2.0113800e-01 1.6039200e-01
5.2784800e+00 2.0113800e-01 1.6039200e-01
5.2662789e+00 1.8478778e-01 1.6598189e-01
5.2536489e+00 1.7276244e-01 1.7110222e-01
5.2405900e+00 1.6506200e-01 1.7575300e-01
5.2271022e+00 1.6168644e-01 1.7993422e-01
5.2131856e+00 1.6263578e-01 1.8364589e-01
5.1988400e+00 1.6791000e-01 1.8688800e-01
5.1988400e+00 1.6791000e-01 1.8688800e-01
5.1847300e+00 1.7250556e-01 1.8928944e-01
5.1692067e+00 1.7770856e-01 1.9184811e-01
5.1522700e+00 1.8351900e-01 1.9456400e-01
5.1339200e+00 1.8993689e-01 1.9743711e-01
5.1141567e+00 1.9696222e-01 2.0046744e-01
5.0929800e+00 2.0459500e-01 2.0365500e-01
5.0929800e+00 2.0459500e-01 2.0365500e-01
5.0644600e+00 2.1356644e-01 2.0958978e-01
5.0372367e+00 2.1812478e-01 2.1533744e-01
5.0113100e+00 2.1827000e-01 2.2089800e-01
4.9866800e+00 2.1400211e-01 2.2627144e-01
4.9633467e+00 2.0532111e-01 2.3145778e-01
4.9413100e+00 1.9222700e-01 2.3645700e-01
4.9413100e+00 1.9222700e-01 2.3645700e-01
4.9238489e+00 1.7697653e-01 2.3742022e-01
4.9073122e+00 1.6126520e-01 2.3645622e-01
4.8917000e+00 1.4509300e-01 2.3356500e-01
4.8770122e+00 1.2845993e-01 2.2874656e-01
4.8632489e+00 1.1136600e-01 2.2200089e-01
4.8504100e+00 9.3811200e-02 2.1332800e-01
4.8504100e+00 9.3811200e-02 2.1332800e-01
4.8291178e+00 1.1055622e-01 2.1508467e-01
4.8059378e+00 1.2641582e-01 2.1575167e-01
4.7808700e+00 1.4139000e-01 2.1532900e-01
4.7539144e+00 1.5547876e-01 2.1381667e-01
4.7250711e+00 1.6868209e-01 2.1121467e-01
4.6943400e+00 1.8100000e-01 2.0752300e-01
4.6943400e+00 1.8100000e-01 2.0752300e-01
4.6644756e+00 1.8900656e-01 1.9887878e-01
4.6365822e+00 1.9337189e-01 1.8919578e-01
4.6106600e+00 1.9409600e-01 1.7847400e-01
4.5867089e+00 1.9117889e-01 1.6671344e-01
4.5647289e+00 1.8462056e-01 1.5391411e-01
4.5447200e+00 1.7442100e-01 1.4007600e-01
4.5447200e+00 1.7442100e-01 1.4007600e-01
4.5273178e+00 1.6021509e-01 1.3132621e-01
4.5083711e+00 1.4561076e-01 1.2187154e-01
4.4878800e+00 1.3060800e-01 1.1171200e-01
4.4658444e+00 1.1520682e-01 1.0084758e-01
4.4422644e+00 9.9407222e-02 8.9278278e-02
4.4171400e+00 8.3209200e-02 7.7004100e-02
4.4171400e+00 8.3209200e-02 7.7004100e-02
4.3861833e+00 6.7986244e-02 6.1349922e-02
4.3527400e+00 5.6883711e-02 4.7180956e-02
4.3168100e+00 4.9901600e-02 3.4497200e-02
4.2783933e+00 4.7039911e-02 2.3298656e-02
4.2374900e+00 4.8298644e-02 1.3585322e-02
4.1941000e+00 5.3677800e-02 5.3572000e-03
4.1941000e+00 5.3677800e-02 5.3572000e-03
4.1512556e+00 6.7176611e-02 2.2315167e-03
4.1123322e+00 8.0458778e-02 -1.4324667e-04
4.0773300e+00 9.3524300e-02 -1.7670900e-03
4.0462489e+00 1.0637318e-01 -2.6400133e-03
4.0190889e+00 1.1900541e-01 -2.7620167e-03
3.9958500e+00 1.3142100e-01 -2.1331000e-03
4.0728300e+00 1.7306300e-01 -2.8176000e-02
4.0656111e+00 1.6167933e-01 -2.6529378e-02
4.0561478e+00 1.5207300e-01 -2.3805211e-02
4.0444400e+00 1.4424400e-01 -2.0003500e-02
4.0304878e+00 1.3819233e-01 -1.5124244e-02
4.0142911e+00 1.3391800e-01 -9.1674444e-03
3.9958500e+00 1.3142100e-01 -2.1331000e-03
5.0936800e+00 3.9282500e-01 1.1352100e-01
5.0775156e+00 3.8093444e-01 1.0285292e-01
5.0612056e+00 3.6875178e-01 9.1519522e-02
5.0447500e+00 3.5627700e-01 7.9520800e-02
5.0281489e+00 3.4351011e-01 6.6856756e-02
5.0114022e+00 3.3045111e-01 5.3527389e-02
4.9945100e+00 3.1710000e-01 3.9532700e-02
4.9945100e+00 3.1710000e-01 3.9532700e-02
4.9780589e+00 3.0045144e-01 2.5323980e-02
4.9620089e+00 2.8477344e-01 1.4733350e-02
4.9463600e+00 2.7006600e-01 7.7608100e-03
4.9311122e+00 2.5632911e-01 4.4063600e-03
4.9162656e+00 2.4356278e-01 4.6700000e-03
4.9018200e+00 2.3176700e-01 8.5517300e-03
4.9018200e+00 2.3176700e-01 8.5517300e-03
4.8797267e+00 2.2719700e-01 2.5816350e-02
4.8561367e+00 2.2423067e-01 4.3227873e-02
4.8310500e+00 2.2286800e-01 6.0786300e-02
4.8044667e+00 2.2310900e-01 7.8491630e-02
4.7763867e+00 2.2495367e-01 9.6343863e-02
4.7468100e+00 2.2840200e-01 1.1434300e-01
4.7468100e+00 2.2840200e-01 1.1434300e-01
4.7185411e+00 2.3480522e-01 1.3370844e-01
4.6889811e+00 2.3966456e-01 1.5315511e-01
4.6581300e+00 2.4298000e-01 1.7268300e-01
4.6259878e+00 2.4475156e-01 1.9229211e-01
4.5925544e+00 2.4497922e-01 2.1198244e-01
4.5578300e+00 2.4366300e-01 2.3175400e-01
4.5578300e+00 2.4366300e-01 2.3175400e-01
4.5204167e+00 2.2602467e-01 2.2685886e-01
4.4802167e+00 2.1134733e-01 2.1431486e-01
4.4372300e+00 1.9963100e-01 1.9412200e-01
4.3914567e+00 1.9087567e-01 1.6628029e-01
4.3428967e+00 1.8508133e-01 1.3078972e-01
4.2915500e+00 1.8224800e-01 8.7650300e-02
4.2915500e+00 1.8224800e-01 8.7650300e-02
4.2458022e+00 1.8328522e-01 5.5901167e-02
4.2037722e+00 1.8329522e-01 2.9129933e-02
4.1654600e+00 1.8227800e-01 7.3366000e-03
4.1308656e+00 1.8023356e-01 -9.4788333e-03
4.0999889e+00 1.7716189e-01 -2.1316367e-02
4.0728300e+00 1.7306300e-01 -2.8176000e-02
2.9837800e+00 3.0559700e-01 -3.8024400e-02
3.0130356e+00 2.8168389e-01 -3.2882811e-02
3.0475589e+00 2.5896589e-01 -3.0165211e-02
3.0873500e+00 2.3744300e-01 -2.9871600e-02
3.1324089e+00 2.1711522e-01 -3.2001978e-02
3.1827356e+00 1.9798256e-01 -3.6556344e-02
3.2383300e+00 1.8004500e-01 -4.3534700e-02
3.2383300e+00 1.8004500e-01 -4.3534700e-02
3.2945522e+00 1.7884100e-01 -4.3993711e-02
3.3496989e+00 1.8246333e-01 -4.2829944e-02
3.4037700e+00 1.9091200e-01 -4.0043400e-02
3.4567656e+00 2.0418700e-01 -3.5634078e-02
3.5086856e+00 2.2228833e-01 -2.9601978e-02
3.5595300e+00 2.4521600e-01 -2.1947100e-02
3.5595300e+00 2.4521600e-01 -2.1947100e-02
3.6063222e+00 2.6806433e-01 -1.8004400e-02
3.6537122e+00 2.8597933e-01 -1.4615900e-02
3.7017000e+00 2.9896100e-01 -1.1781600e-02
3.7502856e+00 3.0700933e-01 -9.5015000e-03
3.7994689e+00 3.1012433e-01 -7.7756000e-03
3.8492500e+00 3.0830600e-01 -6.6039000e-03
3.8492500e+00 3.0830600e-01 -6.6039000e-03
3.8975244e+00 2.8945856e-01 -8.5485000e-03
3.9413944e+00 2.6913389e-01 -1.1153400e-02
3.9808600e+00 2.4733200e-01 -1.4418600e-02
4.0159211e+00 2.2405289e-01 -1.8344100e-02
4.0465778e+00 1.9929656e-01 -2.2929900e-02
4.0728300e+00 1.7306300e-01 -2.8176000e-02
2.4773700e+00 8.8762900e-01 -2.5576200e-02