# vtk DataFile Version 2.0
test
ASCII
DATASET POLYDATA
POINTS 4361 float
4.6399722e+00 6.8977295e+00 1.1859121e+01
4.7489011e+00 6.9591855e+00 1.1732318e+01
4.8598754e+00 7.0199267e+00 1.1607075e+01
4.9728950e+00 7.0799531e+00 1.1483392e+01
5.0879600e+00 7.1392646e+00 1.1361268e+01
5.2050702e+00 7.1978614e+00 1.1240705e+01
5.3242258e+00 7.2557434e+00 1.1121701e+01
5.3242258e+00 7.2557434e+00 1.1121701e+01
5.4474134e+00 7.3184096e+00 1.1006622e+01
5.5769903e+00 7.3796606e+00 1.0900243e+01
5.7129565e+00 7.4394965e+00 1.0802566e+01
5.8553119e+00 7.4979172e+00 1.0713590e+01
6.0040566e+00 7.5549228e+00 1.0633316e+01
6.1591906e+00 7.6105131e+00 1.0561742e+01
6.1591906e+00 7.6105131e+00 1.0561742e+01
6.3246014e+00 7.6613138e+00 1.0511234e+01
6.4921251e+00 7.7093621e+00 1.0474662e+01
6.6617620e+00 7.7546580e+00 1.0452028e+01
6.8335119e+00 7.7972015e+00 1.0443331e+01
7.0073750e+00 7.8369927e+00 1.0448571e+01
7.1833511e+00 7.8740314e+00 1.0467748e+01
7.1833511e+00 7.8740314e+00 1.0467748e+01
7.3575990e+00 7.9067487e+00 1.0491010e+01
7.5315633e+00 7.9370163e+00 1.0518062e+01
7.7052442e+00 7.9648342e+00 1.0548901e+01
7.8786415e+00 7.9902025e+00 1.0583530e+01
8.0517553e+00 8.0131211e+00 1.0621946e+01
8.2245856e+00 8.0335901e+00 1.0664152e+01
8.2245856e+00 8.0335901e+00 1.0664152e+01
8.3974310e+00 8.0519199e+00 1.0707202e+01
8.5711852e+00 8.0679874e+00 1.0746288e+01
8.7458482e+00 8.0817924e+00 1.0781410e+01
8.9214201e+00 8.0933350e+00 1.0812568e+01
9.0979008e+00 8.1026152e+00 1.0839762e+01
9.2752903e+00 8.1096330e+00 1.0862992e+01
9.2752903e+00 8.1096330e+00 1.0862992e+01
9.4554482e+00 8.1137105e+00 1.0877391e+01
9.6339245e+00 8.1155121e+00 1.0877873e+01
9.8107194e+00 8.1150376e+00 1.0864437e+01
9.9858327e+00 8.1122872e+00 1.0837084e+01
1.0159265e+01 8.1072608e+00 1.0795813e+01
1.0331015e+01 8.0999584e+00 1.0740625e+01
1.0331015e+01 8.0999584e+00 1.0740625e+01
1.0495558e+01 8.0901652e+00 1.0667196e+01
1.0651945e+01 8.0801977e+00 1.0582193e+01
1.0800177e+01 8.0700558e+00 1.0485617e+01
1.0940253e+01 8.0597396e+00 1.0377468e+01
1.1072173e+01 8.0492490e+00 1.0257745e+01
1.1195938e+01 8.0385841e+00 1.0126448e+01
1.1195938e+01 8.0385841e+00 1.0126448e+01
1.1307957e+01 8.0398177e+00 9.9869866e+00
1.1418192e+01 8.0393182e+00 9.8461705e+00
1.1526644e+01 8.0370858e+00 9.7039994e+00
1.1633311e+01 8.0331203e+00 9.5604735e+00
1.1738195e+01 8.0274219e+00 9.4155926e+00
1.1841296e+01 8.0199904e+00 9.2693569e+00
1.1841296e+01 8.0199904e+00 9.2693569e+00
1.1738995e+01 7.9502887e+00 9.1326575e+00
1.1637113e+01 7.8781479e+00 8.9970564e+00
1.1535648e+01 7.8035678e+00 8.8625537e+00
1.1434602e+01 7.7265486e+00 8.7291494e+00
1.1333973e+01 7.6470902e+00 8.5968435e+00
1.1233763e+01 7.5651926e+00 8.4656359e+00
1.1233763e+01 7.5651926e+00 8.4656359e+00
1.1134412e+01 7.4936877e+00 8.3276380e+00
1.1039110e+01 7.4211715e+00 8.1876963e+00
1.0947859e+01 7.3476442e+00 8.0458108e+00
1.0860656e+01 7.2731057e+00 7.9019815e+00
1.0777503e+01 7.1975559e+00 7.7562084e+00
1.0698400e+01 7.1209950e+00 7.6084916e+00
1.0698400e+01 7.1209950e+00 7.6084916e+00
1.0626254e+01 7.0438771e+00 7.4567578e+00
1.0562354e+01 6.9645945e+00 7.3035224e+00
1.0506699e+01 6.8831471e+00 7.1487854e+00
1.0459289e+01 6.7995349e+00 6.9925467e+00
1.0420125e+01 6.7137580e+00 6.8348065e+00
1.0389207e+01 6.6258163e+00 6.6755646e+00
1.0389207e+01 6.6258163e+00 6.6755646e+00
1.0370402e+01 6.5356256e+00 6.5158411e+00
1.0361999e+01 6.4440246e+00 6.3573576e+00
1.0363999e+01 6.3510133e+00 6.2001141e+00
1.0376400e+01 6.2565916e+00 6.0441106e+00
1.0399203e+01 6.1607597e+00 5.8893472e+00
1.0432409e+01 6.0635174e+00 5.7358237e+00
1.0432409e+01 6.0635174e+00 5.7358237e+00
1.0474022e+01 5.9655710e+00 5.5858239e+00
1.0521625e+01 5.8666273e+00 5.4389528e+00
1.0575218e+01 5.7666862e+00 5.2952104e+00
1.0634801e+01 5.6657476e+00 5.1545968e+00
1.0700375e+01 5.5638117e+00 5.0171120e+00
1.0771938e+01 5.4608783e+00 4.8827559e+00
1.0771938e+01 5.4608783e+00 4.8827559e+00
1.0846489e+01 5.3577662e+00 4.7507801e+00
1.0922623e+01 5.2536944e+00 4.6205663e+00
1.1000340e+01 5.1486629e+00 4.4921142e+00
1.1079640e+01 5.0426715e+00 4.3654241e+00
1.1160524e+01 4.9357205e+00 4.2404957e+00
1.1242991e+01 4.8278097e+00 4.1173292e+00
1.1242991e+01 4.8278097e+00 4.1173292e+00
1.1324674e+01 4.7177371e+00 3.9957272e+00
1.1404013e+01 4.6051964e+00 3.8748379e+00
1.1481007e+01 4.4901876e+00 3.7546615e+00
1.1555658e+01 4.3727107e+00 3.6351980e+00
1.1627965e+01 4.2527656e+00 3.5164473e+00
1.1697927e+01 4.1303525e+00 3.3984095e+00
1.1697927e+01 4.1303525e+00 3.3984095e+00
1.1763414e+01 4.0050540e+00 3.2802818e+00
1.1822026e+01 3.8771089e+00 3.1622974e+00
1.1873765e+01 3.7465173e+00 3.0444563e+00
1.1918629e+01 3.6132792e+00 2.9267585e+00
1.1956620e+01 3.4773944e+00 2.8092040e+00
1.1987737e+01 3.3388631e+00 2.6917929e+00
1.1987737e+01 3.3388631e+00 2.6917929e+00
1.2010789e+01 3.1966166e+00 2.5759192e+00
1.2023998e+01 3.0532195e+00 2.4615748e+00
1.2027366e+01 2.9086720e+00 2.3487597e+00
1.2020891e+01 2.7629739e+00 2.2374739e+00
1.2004574e+01 2.6161253e+00 2.1277174e+00
1.1978415e+01 2.4681262e+00 2.0194901e+00
1.1978415e+01 2.4681262e+00 2.0194901e+00
1.1941074e+01 2.3226138e+00 1.9115754e+00
1.1896233e+01 2.1782535e+00 1.8060172e+00
1.1843892e+01 2.0350452e+00 1.7028156e+00
1.1784051e+01 1.8929889e+00 1.6019706e+00
1.1716710e+01 1.7520847e+00 1.5034821e+00
1.1641869e+01 1.6123325e+00 1.4073502e+00
1.1641869e+01 1.6123325e+00 1.4073502e+00
1.1559391e+01 1.4749189e+00 1.3146390e+00
1.1473368e+01 1.3386216e+00 1.2239345e+00
1.1383799e+01 1.2034406e+00 1.1352367e+00
1.1290686e+01 1.0693759e+00 1.0485455e+00
1.1194028e+01 9.3642743e-01 9.6386101e-01
1.1093824e+01 8.0459527e-01 8.8118317e-01
1.1093824e+01 8.0459527e-01 8.8118317e-01
1.0993410e+01 6.7162308e-01 8.0006098e-01
1.0892328e+01 5.3887903e-01 7.1950068e-01
1.0790579e+01 4.0636312e-01 6.3950227e-01
1.0688162e+01 2.7407534e-01 5.6006575e-01
1.0585077e+01 1.4201570e-01 4.8119111e-01
1.0481325e+01 1.0184200e-02 4.0287837e-01
2.4136900e+00 5.7925151e+00 1.1721596e+01
2.3801409e+00 5.7503871e+00 1.1537600e+01
2.3472575e+00 5.7052109e+00 1.1354312e+01
2.3150398e+00 5.6569865e+00 1.1171732e+01
2.2834879e+00 5.6057140e+00 1.0989860e+01
2.2526017e+00 5.5513932e+00 1.0808695e+01
2.2223812e+00 5.4940243e+00 1.0628239e+01
2.2223812e+00 5.4940243e+00 1.0628239e+01
2.2002545e+00 5.4449351e+00 1.0443818e+01
2.1850889e+00 5.3937014e+00 1.0259920e+01
2.1768846e+00 5.3403231e+00 1.0076546e+01
2.1756414e+00 5.2848002e+00 9.8936940e+00
2.1813594e+00 5.2271328e+00 9.7113656e+00
2.1940386e+00 5.1673209e+00 9.5295602e+00
2.1940386e+00 5.1673209e+00 9.5295602e+00
2.2196162e+00 5.1024901e+00 9.3499042e+00
2.2552952e+00 5.0345244e+00 9.1748342e+00
2.3010756e+00 4.9634240e+00 9.0043500e+00
2.3569574e+00 4.8891886e+00 8.8384516e+00
2.4229406e+00 4.8118185e+00 8.6771391e+00
2.4990252e+00 4.7313135e+00 8.5204125e+00
2.4990252e+00 4.7313135e+00 8.5204125e+00
2.5891094e+00 4.6472589e+00 8.3728829e+00
2.6882415e+00 4.5617282e+00 8.2344743e+00
2.7964216e+00 4.4747213e+00 8.1051866e+00
2.9136496e+00 4.3862382e+00 7.9850197e+00
3.0399255e+00 4.2962791e+00 7.8739738e+00
3.1752493e+00 4.2048437e+00 7.7720488e+00
3.1752493e+00 4.2048437e+00 7.7720488e+00
3.3104019e+00 4.1136062e+00 7.6730897e+00
3.4463945e+00 4.0212561e+00 7.5765553e+00
3.5832272e+00 3.9277934e+00 7.4824456e+00
3.7208999e+00 3.8332180e+00 7.3907605e+00
3.8594127e+00 3.7375301e+00 7.3015001e+00
3.9987655e+00 3.6407296e+00 7.2146644e+00
3.9987655e+00 3.6407296e+00 7.2146644e+00
4.1393097e+00 3.5419087e+00 7.1314791e+00
4.2768613e+00 3.4405041e+00 7.0468343e+00
4.4114202e+00 3.3365159e+00 6.9607300e+00
4.5429865e+00 3.2299439e+00 6.8731661e+00
4.6715600e+00 3.1207883e+00 6.7841427e+00
4.7971409e+00 3.0090490e+00 6.6936598e+00
4.7971409e+00 3.0090490e+00 6.6936598e+00
4.9176105e+00 2.8943233e+00 6.5981550e+00
5.0287774e+00 2.7764416e+00 6.4976743e+00
5.1306418e+00 2.6554039e+00 6.3922176e+00
5.2232035e+00 2.5312102e+00 6.2817850e+00
5.3064627e+00 2.4038606e+00 6.1663764e+00
5.3804192e+00 2.2733549e+00 6.0459920e+00
5.3804192e+00 2.2733549e+00 6.0459920e+00
5.4371319e+00 2.1395677e+00 5.9190216e+00
5.4810985e+00 2.0060679e+00 5.7893267e+00
5.5123188e+00 1.8728555e+00 5.6569071e+00
5.5307929e+00 1.7399306e+00 5.5217629e+00
5.5365209e+00 1.6072930e+00 5.3838942e+00
5.5295026e+00 1.4749429e+00 5.2433008e+00
5.5295026e+00 1.4749429e+00 5.2433008e+00
5.5125361e+00 1.3468097e+00 5.1008116e+00
5.4892406e+00 1.2203183e+00 4.9582780e+00
5.4596160e+00 1.0954687e+00 4.8157000e+00
5.4236625e+00 9.7226085e-01 4.6730775e+00
5.3813800e+00 8.5069474e-01 4.5304106e+00
5.3327685e+00 7.3077039e-01 4.3876992e+00
5.3327685e+00 7.3077039e-01 4.3876992e+00
5.2820860e+00 6.0904066e-01 4.2479245e+00
5.2300608e+00 4.8745863e-01 4.1084045e+00
5.1766929e+00 3.6602429e-01 3.9691393e+00
5.1219822e+00 2.4473766e-01 3.8301288e+00
5.0659287e+00 1.2359874e-01 3.6913731e+00
5.0085325e+00 2.6075100e-03 3.5528722e+00
1.1947400e+00 5.5943064e+00 1.3894737e+01
1.2606963e+00 5.7005356e+00 1.3743416e+01
1.3391934e+00 5.8061838e+00 1.3601885e+01
1.4302311e+00 5.9112512e+00 1.3470144e+01
1.5338094e+00 6.0157377e+00 1.3348194e+01
1.6499285e+00 6.1196432e+00 1.3236035e+01
1.7785882e+00 6.2229679e+00 1.3133666e+01
1.7785882e+00 6.2229679e+00 1.3133666e+01
1.9397830e+00 6.3141050e+00 1.3073308e+01
2.1072703e+00 6.3950828e+00 1.3027047e+01
2.2810500e+00 6.4659014e+00 1.2994884e+01
2.4611222e+00 6.5265607e+00 1.2976819e+01
2.6474869e+00 6.5770607e+00 1.2972853e+01
2.8401440e+00 6.6174014e+00 1.2982984e+01
2.8401440e+00 6.6174014e+00 1.2982984e+01
3.0339180e+00 6.6513880e+00 1.2992956e+01
3.2239715e+00 6.6833362e+00 1.2984629e+01
3.4103048e+00 6.7132459e+00 1.2958001e+01
3.5929177e+00 6.7411173e+00 1.2913073e+01
3.7718102e+00 6.7669502e+00 1.2849845e+01
3.9469825e+00 6.7907448e+00 1.2768317e+01
3.9469825e+00 6.7907448e+00 1.2768317e+01
4.0923304e+00 6.8149788e+00 1.2641511e+01
4.2257385e+00 6.8366515e+00 1.2504815e+01
4.3472067e+00 6.8557629e+00 1.2358227e+01
4.4567351e+00 6.8723131e+00 1.2201749e+01
[...]
POINT_DATA 4361
VECTORS U float
1.3430700e+00 4.3488100e-01 -8.1367700e-03
1.3561633e+00 4.2484089e-01 -1.2453833e-03
1.3686667e+00 4.1376322e-01 4.8864067e-03
1.3805800e+00 4.0164800e-01 1.0258600e-02
1.3919033e+00 3.8849522e-01 1.4871197e-02
1.4026367e+00 3.7430489e-01 1.8724197e-02
1.4127800e+00 3.5907700e-01 2.1817600e-02
1.4127800e+00 3.5907700e-01 2.1817600e-02
1.4207778e+00 3.4743544e-01 2.4613667e-02
1.4279744e+00 3.3484644e-01 2.5985367e-02
1.4343700e+00 3.2131000e-01 2.5932700e-02
1.4399644e+00 3.0682611e-01 2.4455667e-02
1.4447578e+00 2.9139478e-01 2.1554267e-02
1.4487500e+00 2.7501600e-01 1.7228500e-02
1.4487500e+00 2.7501600e-01 1.7228500e-02
1.4545200e+00 2.5654811e-01 1.5422178e-02
1.4596567e+00 2.3919078e-01 1.4779978e-02
1.4641600e+00 2.2294400e-01 1.5301900e-02
1.4680300e+00 2.0780778e-01 1.6987944e-02
1.4712667e+00 1.9378211e-01 1.9838111e-02
1.4738700e+00 1.8086700e-01 2.3852400e-02
1.4738700e+00 1.8086700e-01 2.3852400e-02
1.4761689e+00 1.6823700e-01 2.3686911e-02
1.4781289e+00 1.5654933e-01 2.3634344e-02
1.4797500e+00 1.4580400e-01 2.3694700e-02
1.4810322e+00 1.3600100e-01 2.3867978e-02
1.4819756e+00 1.2714033e-01 2.4154178e-02
1.4825800e+00 1.1922200e-01 2.4553300e-02
1.4825800e+00 1.1922200e-01 2.4553300e-02
1.4827489e+00 1.1178749e-01 2.5957989e-02
1.4828256e+00 1.0484692e-01 2.7450656e-02
1.4828100e+00 9.8400300e-02 2.9031300e-02
1.4827022e+00 9.2447622e-02 3.0699922e-02
1.4825022e+00 8.6988889e-02 3.2456522e-02
1.4822100e+00 8.2024100e-02 3.4301100e-02
1.4822100e+00 8.2024100e-02 3.4301100e-02
1.4819800e+00 7.6975867e-02 3.6037478e-02
1.4816333e+00 7.2665467e-02 3.7050344e-02
1.4811700e+00 6.9092900e-02 3.7339700e-02
1.4805900e+00 6.6258167e-02 3.6905544e-02
1.4798933e+00 6.4161267e-02 3.5747878e-02
1.4790800e+00 6.2802200e-02 3.3866700e-02
1.4790800e+00 6.2802200e-02 3.3866700e-02
1.4785522e+00 6.2107556e-02 3.2649317e-02
1.4766989e+00 6.2867522e-02 3.0112217e-02
1.4735200e+00 6.5082100e-02 2.6255400e-02
1.4690156e+00 6.8751289e-02 2.1078867e-02
1.4631856e+00 7.3875089e-02 1.4582617e-02
1.4560300e+00 8.0453500e-02 6.7666500e-03
1.4560300e+00 8.0453500e-02 6.7666500e-03
1.4434378e+00 9.9363722e-02 -5.0384500e-03
1.4317011e+00 1.1684056e-01 -1.5880567e-02
1.4208200e+00 1.3288400e-01 -2.5759700e-02
1.4107944e+00 1.4749406e-01 -3.4675850e-02
1.4016244e+00 1.6067072e-01 -4.2629017e-02
1.3933100e+00 1.7241400e-01 -4.9619200e-02
1.3933100e+00 1.7241400e-01 -4.9619200e-02
1.3858711e+00 1.6636022e-01 -4.2078744e-02
1.3775078e+00 1.5838189e-01 -3.2830744e-02
1.3682200e+00 1.4847900e-01 -2.1875200e-02
1.3580078e+00 1.3665156e-01 -9.2121111e-03
1.3468711e+00 1.2289956e-01 5.1585222e-03
1.3348100e+00 1.0722300e-01 2.1236700e-02
1.3348100e+00 1.0722300e-01 2.1236700e-02
1.3210922e+00 1.0299006e-01 3.1860744e-02
1.3066556e+00 9.9304556e-02 4.2099844e-02
1.2915000e+00 9.6166500e-02 5.1954000e-02
1.2756256e+00 9.3575889e-02 6.1423211e-02
1.2590322e+00 9.1532722e-02 7.0507478e-02
1.2417200e+00 9.0037000e-02 7.9206800e-02
1.2417200e+00 9.0037000e-02 7.9206800e-02
1.2242911e+00 9.0269867e-02 8.6170500e-02
1.2058078e+00 9.0378067e-02 9.2381267e-02
1.1862700e+00 9.0361600e-02 9.7839100e-02
1.1656778e+00 9.0220467e-02 1.0254400e-01
1.1440311e+00 8.9954667e-02 1.0649597e-01
1.1213300e+00 8.9564200e-02 1.0969500e-01
1.1213300e+00 8.9564200e-02 1.0969500e-01
1.0983671e+00 8.8835178e-02 1.1167289e-01
1.0759271e+00 8.7673378e-02 1.1250389e-01
1.0540100e+00 8.6078800e-02 1.1218800e-01
1.0326158e+00 8.4051444e-02 1.1072522e-01
1.0117444e+00 8.1591311e-02 1.0811556e-01
9.9139600e-01 7.8698400e-02 1.0435900e-01
9.9139600e-01 7.8698400e-02 1.0435900e-01
9.7131144e-01 7.5204044e-02 1.0004874e-01
9.5184511e-01 7.1105478e-02 9.5689811e-02
9.3299700e-01 6.6402700e-02 9.1282200e-02
9.1476711e-01 6.1095711e-02 8.6825911e-02
8.9715544e-01 5.5184511e-02 8.2320944e-02
8.8016200e-01 4.8669100e-02 7.7767300e-02
8.8016200e-01 4.8669100e-02 7.7767300e-02
8.6328967e-01 4.2397489e-02 7.2783700e-02
8.4648667e-01 3.6174456e-02 6.7566133e-02
8.2975300e-01 3.0000000e-02 6.2114600e-02
8.1308867e-01 2.3874122e-02 5.6429100e-02
7.9649367e-01 1.7796822e-02 5.0509633e-02
7.7996800e-01 1.1768100e-02 4.4356200e-02
7.7996800e-01 1.1768100e-02 4.4356200e-02
7.6266200e-01 5.0241556e-03 3.8494902e-02
7.4453367e-01 -2.0840044e-03 3.2605002e-02
7.2558300e-01 -9.5563800e-03 2.6686500e-02
7.0581000e-01 -1.7392971e-02 2.0739396e-02
6.8521467e-01 -2.5593778e-02 1.4763689e-02
6.6379700e-01 -3.4158800e-02 8.7593800e-03
6.6379700e-01 -3.4158800e-02 8.7593800e-03
6.4077767e-01 -4.2776011e-02 2.6121167e-03
6.1626533e-01 -5.0853444e-02 -3.3626733e-03
5.9026000e-01 -5.8391100e-02 -9.1649900e-03
5.6276167e-01 -6.5388978e-02 -1.4794833e-02
5.3377033e-01 -7.1847078e-02 -2.0252203e-02
5.0328600e-01 -7.7765400e-02 -2.5537100e-02
5.0328600e-01 -7.7765400e-02 -2.5537100e-02
4.7289022e-01 -8.3365100e-02 -2.8845300e-02
4.4254022e-01 -8.7651233e-02 -3.1264300e-02
4.1223600e-01 -9.0623800e-02 -3.2794100e-02
3.8197756e-01 -9.2282800e-02 -3.3434700e-02
3.5176489e-01 -9.2628233e-02 -3.3186100e-02
3.2159800e-01 -9.1660100e-02 -3.2048300e-02
3.2159800e-01 -9.1660100e-02 -3.2048300e-02
2.9263100e-01 -8.7263089e-02 -3.2367356e-02
2.6546800e-01 -8.2222556e-02 -3.2425589e-02
2.4010900e-01 -7.6538500e-02 -3.2223000e-02
2.1655400e-01 -7.0210922e-02 -3.1759589e-02
1.9480300e-01 -6.3239822e-02 -3.1035356e-02
1.7485600e-01 -5.5625200e-02 -3.0050300e-02
1.7485600e-01 -5.5625200e-02 -3.0050300e-02
1.5434609e-01 -4.7662911e-02 -2.8184867e-02
1.3506009e-01 -3.9944978e-02 -2.6045767e-02
1.1699800e-01 -3.2471400e-02 -2.3633000e-02
1.0015982e-01 -2.5242178e-02 -2.0946567e-02
8.4545556e-02 -1.8257311e-02 -1.7986467e-02
7.0155200e-02 -1.1516800e-02 -1.4752700e-02
7.0155200e-02 -1.1516800e-02 -1.4752700e-02
5.8069430e-02 -7.1145706e-03 -1.1169960e-02
4.6658530e-02 -3.0264996e-03 -7.6101667e-03
3.5922500e-02 7.4741300e-04 -4.0733200e-03
2.5861340e-02 4.2071671e-03 -5.5942000e-04
1.6475050e-02 7.3527628e-03 2.9315333e-03
7.7636300e-03 1.0184200e-02 6.3995400e-03
1.1955700e+00 5.8100300e-01 7.7040700e-02
1.1846078e+00 5.7510622e-01 8.0566000e-02
1.1720111e+00 5.6674756e-01 8.4879667e-02
1.1577800e+00 5.5592700e-01 8.9981700e-02
1.1419144e+00 5.4264456e-01 9.5872100e-02
1.1244144e+00 5.2690022e-01 1.0255087e-01
1.1052800e+00 5.0869400e-01 1.1001800e-01
1.1052800e+00 5.0869400e-01 1.1001800e-01
1.0897471e+00 4.9997200e-01 1.1412467e-01
1.0732138e+00 4.9095400e-01 1.1769933e-01
1.0556800e+00 4.8164000e-01 1.2074200e-01
1.0371458e+00 4.7203000e-01 1.2325267e-01
1.0176111e+00 4.6212400e-01 1.2523133e-01
9.9707600e-01 4.5192200e-01 1.2667800e-01
9.9707600e-01 4.5192200e-01 1.2667800e-01
9.7669389e-01 4.3950133e-01 1.2782622e-01
9.5477789e-01 4.2613867e-01 1.2751289e-01
9.3132800e-01 4.1183400e-01 1.2573800e-01
9.0634422e-01 3.9658733e-01 1.2250156e-01
8.7982656e-01 3.8039867e-01 1.1780356e-01
8.5177500e-01 3.6326800e-01 1.1164400e-01
8.5177500e-01 3.6326800e-01 1.1164400e-01
8.2682989e-01 3.4414500e-01 1.0470451e-01
8.0482156e-01 3.2484433e-01 9.9740311e-02
7.8575000e-01 3.0536600e-01 9.6751400e-02
7.6961522e-01 2.8571000e-01 9.5737778e-02
7.5641722e-01 2.6587633e-01 9.6699444e-02
7.4615600e-01 2.4586500e-01 9.9636400e-02
7.4615600e-01 2.4586500e-01 9.9636400e-02
7.3339644e-01 2.2704256e-01 1.0004601e-01
7.2038644e-01 2.0875522e-01 9.9727578e-02
7.0712600e-01 1.9100300e-01 9.8681100e-02
6.9361511e-01 1.7378589e-01 9.6906578e-02
6.7985378e-01 1.5710389e-01 9.4404011e-02
6.6584200e-01 1.4095700e-01 9.1173400e-02
6.6584200e-01 1.4095700e-01 9.1173400e-02
6.5352722e-01 1.2483658e-01 9.0512422e-02
6.4043222e-01 1.0902731e-01 8.9146089e-02
6.2655700e-01 9.3529200e-02 8.7074400e-02
6.1190156e-01 7.8342244e-02 8.4297356e-02
5.9646589e-01 6.3466444e-02 8.0814956e-02
5.8025000e-01 4.8901800e-02 7.6627200e-02
5.8025000e-01 4.8901800e-02 7.6627200e-02
5.6247278e-01 3.5310878e-02 7.0296411e-02
5.4281744e-01 2.2582844e-02 6.3327644e-02
5.2128400e-01 1.0717700e-02 5.5720900e-02
4.9787244e-01 -2.8455556e-04 4.7476178e-02
4.7258278e-01 -1.0423922e-02 3.8593478e-02
4.4541500e-01 -1.9700400e-02 2.9072800e-02
4.4541500e-01 -1.9700400e-02 2.9072800e-02
4.1342100e-01 -2.7643444e-02 1.9684164e-02
3.8124233e-01 -3.3741844e-02 1.1638218e-02
3.4887900e-01 -3.7995600e-02 4.9349600e-03
3.1633100e-01 -4.0404711e-02 -4.2560889e-04
2.8359833e-01 -4.0969178e-02 -4.4434889e-03
2.5068100e-01 -3.9689000e-02 -7.1186800e-03
2.5068100e-01 -3.9689000e-02 -7.1186800e-03
2.2090910e-01 -3.5581770e-02 -9.9863222e-03
1.9293177e-01 -3.1025703e-02 -1.2189529e-02
1.6674900e-01 -2.6020800e-02 -1.3728300e-02
1.4236080e-01 -2.0567060e-02 -1.4602636e-02
1.1976717e-01 -1.4664483e-02 -1.4812536e-02
9.8968100e-02 -8.3130700e-03 -1.4358000e-02
9.8968100e-02 -8.3130700e-03 -1.4358000e-02
8.0507807e-02 -5.3054439e-03 -1.1393953e-02
6.2995940e-02 -2.7728296e-03 -8.2365433e-03
4.6432500e-02 -7.1522700e-04 -4.8857700e-03
3.0817487e-02 8.6736378e-04 -1.3416333e-03
1.6150900e-02 1.9749428e-03 2.3958667e-03
2.4327400e-03 2.6075100e-03 6.3267300e-03
1.1947400e+00 6.2460200e-01 -2.5045700e-02
1.2099989e+00 6.2775700e-01 -1.6980311e-02
1.2244356e+00 6.2889567e-01 -9.2676044e-03
1.2380500e+00 6.2801800e-01 -1.9075800e-03
1.2508422e+00 6.2512400e-01 5.0997622e-03
1.2628122e+00 6.2021367e-01 1.1754422e-02
1.2739600e+00 6.1328700e-01 1.8056400e-02
1.2739600e+00 6.1328700e-01 1.8056400e-02
1.2833611e+00 5.9996011e-01 2.1758289e-02
1.2919678e+00 5.8526244e-01 2.3478989e-02
1.2997800e+00 5.6919400e-01 2.3218500e-02
1.3067978e+00 5.5175478e-01 2.0976822e-02
1.3130211e+00 5.3294478e-01 1.6753956e-02
1.3184500e+00 5.1276400e-01 1.0549900e-02
1.3184500e+00 5.1276400e-01 1.0549900e-02
1.3234422e+00 4.9098844e-01 5.1537556e-03
1.3273456e+00 4.7203678e-01 3.1060222e-04
1.3301600e+00 4.5590900e-01 -3.9795600e-03
1.3318856e+00 4.4260511e-01 -7.7167311e-03
1.3325222e+00 4.3212511e-01 -1.0900911e-02
1.3320700e+00 4.2446900e-01 -1.3532100e-02
1.3320700e+00 4.2446900e-01 -1.3532100e-02
1.3315756e+00 4.2525100e-01 -1.4029637e-02
1.3320122e+00 4.2641433e-01 -1.3968470e-02
1.3333800e+00 4.2795900e-01 -1.3348600e-02
1.3356789e+00 4.2988500e-01 -1.2170027e-02
1.3389089e+00 4.3219233e-01 -1.0432750e-02
1.3430700e+00 4.3488100e-01 -8.1367700e-03
1.1599400e+00 6.1059800e-01 2.3493200e-02
1.1684922e+00 6.0960689e-01 3.6701144e-02
1.1759989e+00 6.0703922e-01 4.8195744e-02
1.1824600e+00 6.0289500e-01 5.7977000e-02
1.1878756e+00 5.9717422e-01 6.6044911e-02
1.1922456e+00 5.8987689e-01 7.2399478e-02
1.1955700e+00 5.8100300e-01 7.7040700e-02
1.3933100e+00 1.7241400e-01 -4.9619200e-02
1.3807800e+00 1.5252758e-01 -4.7777911e-02
1.3678567e+00 1.3343391e-01 -4.5333444e-02
1.3545400e+00 1.1513300e-01 -4.2285800e-02
1.3408300e+00 9.7624844e-02 -3.8634978e-02
1.3267267e+00 8.0909444e-02 -3.4380978e-02
1.3122300e+00 6.4986800e-02 -2.9523800e-02
1.3122300e+00 6.4986800e-02 -2.9523800e-02
1.3043922e+00 5.5591944e-02 -2.7842233e-02
1.2951356e+00 4.7102544e-02 -2.4712767e-02
1.2844600e+00 3.9518600e-02 -2.0135400e-02
1.2723656e+00 3.2840111e-02 -1.4110133e-02
1.2588522e+00 2.7067078e-02 -6.6369667e-03
1.2439200e+00 2.2199500e-02 2.2841000e-03
1.2439200e+00 2.2199500e-02 2.2841000e-03
1.2270222e+00 1.6302638e-02 1.0204356e-02
1.2096389e+00 1.1080211e-02 1.7385189e-02
1.1917700e+00 6.5322200e-03 2.3826600e-02
1.1734156e+00 2.6586644e-03 2.9528589e-02
1.1545756e+00 -5.4045556e-04 3.4491156e-02
1.1352500e+00 -3.0651400e-03 3.8714300e-02
1.1352500e+00 -3.0651400e-03 3.8714300e-02
1.1088638e+00 -5.6254889e-03 4.2085367e-02
1.0819471e+00 -7.7122489e-03 4.4136000e-02
1.0545000e+00 -9.3254200e-03 4.4866200e-02
1.0265224e+00 -1.0465002e-02 4.4275967e-02
9.9801444e-01 -1.1130996e-02 4.2365300e-02
9.6897600e-01 -1.1323400e-02 3.9134200e-02
9.6897600e-01 -1.1323400e-02 3.9134200e-02
9.4463411e-01 -9.6626744e-03 3.6613778e-02
9.2068444e-01 -7.4657778e-03 3.3795944e-02
8.9712700e-01 -4.7327100e-03 3.0680700e-02
8.7396178e-01 -1.4634711e-03 2.7268044e-02
8.5118878e-01 2.3419389e-03 2.3557978e-02
8.2880800e-01 6.6835200e-03 1.9550500e-02
8.2880800e-01 6.6835200e-03 1.9550500e-02
8.0610156e-01 1.0131322e-02 1.4534911e-02
7.8316589e-01 1.3910816e-02 9.5061711e-03
7.6000100e-01 1.8022000e-02 4.4642800e-03
7.3660689e-01 2.2464876e-02 -5.9076222e-04
7.1298356e-01 2.7239442e-02 -5.6589556e-03
6.8913100e-01 3.2345700e-02 -1.0740300e-02
6.8913100e-01 3.2345700e-02 -1.0740300e-02
6.6730700e-01 3.6480422e-02 -1.5495978e-02
6.4385300e-01 4.1331856e-02 -1.9532611e-02
6.1876900e-01 4.6900000e-02 -2.2850200e-02
5.9205500e-01 5.3184856e-02 -2.5448744e-02
5.6371100e-01 6.0186422e-02 -2.7328244e-02
5.3373700e-01 6.7904700e-02 -2.8488700e-02
5.3373700e-01 6.7904700e-02 -2.8488700e-02
4.9897811e-01 7.7870589e-02 -2.7764800e-02
4.6527544e-01 8.5890622e-02 -2.6617567e-02
4.3262900e-01 9.1964800e-02 -2.5047000e-02
4.0103878e-01 9.6093122e-02 -2.3053100e-02
3.7050478e-01 9.8275589e-02 -2.0635867e-02
3.4102700e-01 9.8512200e-02 -1.7795300e-02
3.4102700e-01 9.8512200e-02 -1.7795300e-02
3.0940744e-01 9.6472689e-02 -1.4750209e-02
2.7973044e-01 9.3284256e-02 -1.1760939e-02
2.5199600e-01 8.8946900e-02 -8.8274900e-03
2.2620411e-01 8.3460622e-02 -5.9498629e-03
2.0235478e-01 7.6825422e-02 -3.1280572e-03
1.8044800e-01 6.9041300e-02 -3.6207300e-04
1.8044800e-01 6.9041300e-02 -3.6207300e-04
1.5911041e-01 6.1441289e-02 3.8915483e-03
1.3879474e-01 5.3846989e-02 7.8355393e-03
1.1950100e-01 4.6258400e-02 1.1469900e-02
1.0122918e-01 3.8675522e-02 1.4794630e-02
8.3979278e-02 3.1098356e-02 1.7809730e-02
6.7751300e-02 2.3526900e-02 2.0515200e-02
6.7751300e-02 2.3526900e-02 2.0515200e-02
5.9097100e-02 2.0138471e-02 1.7274531e-02
5.0116200e-02 1.5972171e-02 1.4023064e-02
4.0808600e-02 1.1028000e-02 1.0760800e-02
3.1174300e-02 5.3059578e-03 7.4877380e-03
2.1213300e-02 -1.1939556e-03 4.2038783e-03
1.0925600e-02 -8.4717400e-03 9.0922100e-04
4.4051800e+00 3.0394700e-01 9.6506600e-02
4.3974033e+00 2.7979500e-01 1.0393633e-01
4.3890000e+00 2.5648067e-01 1.1118680e-01
4.3799700e+00 2.3400400e-01 1.1825800e-01
4.3703133e+00 2.1236500e-01 1.2514993e-01
4.3600300e+00 1.9156367e-01 1.3186260e-01
4.3491200e+00 1.7160000e-01 1.3839600e-01
4.3491200e+00 1.7160000e-01 1.3839600e-01
4.3394400e+00 1.5813100e-01 1.4288767e-01
4.3294800e+00 1.4826133e-01 1.4702633e-01
4.3192400e+00 1.4199100e-01 1.5081200e-01
4.3087200e+00 1.3932000e-01 1.5424467e-01
4.2979200e+00 1.4024833e-01 1.5732433e-01
4.2868400e+00 1.4477600e-01 1.6005100e-01
4.2868400e+00 1.4477600e-01 1.6005100e-01
4.2757656e+00 1.4877122e-01 1.6219644e-01
4.2634722e+00 1.5325389e-01 1.6449944e-01
4.2499600e+00 1.5822400e-01 1.6696000e-01
4.2352289e+00 1.6368156e-01 1.6957811e-01
4.2192789e+00 1.6962656e-01 1.7235378e-01
4.2021100e+00 1.7605900e-01 1.7528700e-01
4.2021100e+00 1.7605900e-01 1.7528700e-01
4.1790289e+00 1.8341411e-01 1.8051722e-01
4.1570289e+00 1.8718378e-01 1.8557989e-01
4.1361100e+00 1.8736800e-01 1.9047500e-01
4.1162722e+00 1.8396678e-01 1.9520256e-01
4.0975156e+00 1.7698011e-01 1.9976256e-01
4.0798400e+00 1.6640800e-01 2.0415500e-01
4.0798400e+00 1.6640800e-01 2.0415500e-01
4.0659033e+00 1.5417906e-01 2.0536789e-01
4.0527067e+00 1.4152506e-01 2.0495356e-01
4.0402500e+00 1.2844600e-01 2.0291200e-01
4.0285333e+00 1.1494189e-01 1.9924322e-01
4.0175567e+00 1.0101272e-01 1.9394722e-01
4.0073200e+00 8.6658500e-02 1.8702400e-01
4.0073200e+00 8.6658500e-02 1.8702400e-01
3.9893144e+00 9.9995389e-02 1.8843256e-01
3.9697678e+00 1.1262156e-01 1.8889389e-01
3.9486800e+00 1.2453700e-01 1.8840800e-01
3.9260511e+00 1.3574172e-01 1.8697489e-01
3.9018811e+00 1.4623572e-01 1.8459456e-01
3.8761700e+00 1.5601900e-01 1.8126700e-01
3.8761700e+00 1.5601900e-01 1.8126700e-01
3.8513867e+00 1.6218500e-01 1.7385389e-01
3.8283433e+00 1.6540633e-01 1.6565722e-01
3.8070400e+00 1.6568300e-01 1.5667700e-01
3.7874767e+00 1.6301500e-01 1.4691322e-01
3.7696533e+00 1.5740233e-01 1.3636589e-01
3.7535700e+00 1.4884500e-01 1.2503500e-01
3.7535700e+00 1.4884500e-01 1.2503500e-01
3.7397822e+00 1.3722550e-01 1.1803233e-01
3.7247356e+00 1.2523283e-01 1.1043267e-01
3.7084300e+00 1.1286700e-01 1.0223600e-01
3.6908656e+00 1.0012800e-01 9.3442333e-02
3.6720422e+00 8.7015833e-02 8.4051667e-02
3.6519600e+00 7.3530500e-02 7.4064000e-02
3.6519600e+00 7.3530500e-02 7.4064000e-02
3.6270544e+00 6.0613689e-02 6.1153700e-02
3.5999511e+00 5.1019822e-02 4.9414133e-02
3.5706500e+00 4.4748900e-02 3.8845300e-02
3.5391511e+00 4.1800922e-02 2.9447200e-02
3.5054544e+00 4.2175889e-02 2.1219833e-02
3.4695600e+00 4.5873800e-02 1.4163200e-02
3.4695600e+00 4.5873800e-02 1.4163200e-02
3.4337033e+00 5.6437500e-02 1.1301831e-02
3.4011533e+00 6.6863400e-02 9.1290278e-03
3.3719100e+00 7.7151500e-02 7.6447900e-03
3.3459733e+00 8.7301800e-02 6.8491178e-03
3.3233433e+00 9.7314300e-02 6.7420111e-03
3.3040200e+00 1.0718900e-01 7.3234700e-03
3.3662700e+00 1.4223000e-01 -1.4184400e-02
3.3607200e+00 1.3252900e-01 -1.3101691e-02
3.3532400e+00 1.2437233e-01 -1.1018208e-02
3.3438300e+00 1.1776000e-01 -7.9339500e-03
3.3324900e+00 1.1269200e-01 -3.8489178e-03
3.3192200e+00 1.0916833e-01 1.2368889e-03
3.3040200e+00 1.0718900e-01 7.3234700e-03
4.1941000e+00 3.3113000e-01 9.7138900e-02
4.1809567e+00 3.2124411e-01 8.8301611e-02
4.1677533e+00 3.1114544e-01 7.8954144e-02
4.1544900e+00 3.0083400e-01 6.9096500e-02
4.1411667e+00 2.9030978e-01 5.8728678e-02
4.1277833e+00 2.7957278e-01 4.7850678e-02
4.1143400e+00 2.6862300e-01 3.6462500e-02
4.1143400e+00 2.6862300e-01 3.6462500e-02
4.1013989e+00 2.5513011e-01 2.5043256e-02
4.0887622e+00 2.4246311e-01 1.6549722e-02
4.0764300e+00 2.3062200e-01 1.0981900e-02
4.0644022e+00 2.1960678e-01 8.3397889e-03
4.0526789e+00 2.0941744e-01 8.6233889e-03
4.0412600e+00 2.0005400e-01 1.1832700e-02
4.0412600e+00 2.0005400e-01 1.1832700e-02
4.0234833e+00 1.9604022e-01 2.5919889e-02
4.0044400e+00 1.9332089e-01 4.0186956e-02
3.9841300e+00 1.9189600e-01 5.4633900e-02
3.9625533e+00 1.9176556e-01 6.9260722e-02
3.9397100e+00 1.9292956e-01 8.4067422e-02
3.9156000e+00 1.9538800e-01 9.9054000e-02
3.9156000e+00 1.9538800e-01 9.9054000e-02
3.8924633e+00 2.0065756e-01 1.1551956e-01
3.8683000e+00 2.0469856e-01 1.3218389e-01
3.8431100e+00 2.0751100e-01 1.4904700e-01
3.8168933e+00 2.0909489e-01 1.6610889e-01
3.7896500e+00 2.0945022e-01 1.8336956e-01
3.7613800e+00 2.0857700e-01 2.0082900e-01
3.7613800e+00 2.0857700e-01 2.0082900e-01
3.7315556e+00 1.9397467e-01 1.9781749e-01
3.6994156e+00 1.8150333e-01 1.8825316e-01
3.6649600e+00 1.7116300e-01 1.7213600e-01
3.6281889e+00 1.6295367e-01 1.4946602e-01
3.5891022e+00 1.5687533e-01 1.2024322e-01
3.5477000e+00 1.5292800e-01 8.4467600e-02
3.5477000e+00 1.5292800e-01 8.4467600e-02
3.5104200e+00 1.5281444e-01 5.7877489e-02
3.4759567e+00 1.5203311e-01 3.5346622e-02
3.4443100e+00 1.5058400e-01 1.6875000e-02
3.4154800e+00 1.4846711e-01 2.4626222e-03
3.3894667e+00 1.4568244e-01 -7.8905111e-03
3.3662700e+00 1.4223000e-01 -1.4184400e-02
2.4605100e+00 2.4511800e-01 -2.5257000e-02
2.4854889e+00 2.2517922e-01 -2.1214011e-02
2.5149556e+00 2.0640522e-01 -1.9255044e-02
2.5489100e+00 1.8879600e-01 -1.9380100e-02
2.5873522e+00 1.7235156e-01 -2.1589178e-02
2.6302822e+00 1.5707189e-01 -2.5882278e-02
2.6777000e+00 1.4295700e-01 -3.2259400e-02
2.6777000e+00 1.4295700e-01 -3.2259400e-02
2.7243967e+00 1.4314144e-01 -3.2762267e-02
2.7697900e+00 1.4718511e-01 -3.1860600e-02
2.8138800e+00 1.5508800e-01 -2.9554400e-02
2.8566667e+00 1.6685011e-01 -2.5843667e-02
2.8981500e+00 1.8247144e-01 -2.0728400e-02
2.9383300e+00 2.0195200e-01 -1.4208600e-02
2.9383300e+00 2.0195200e-01 -1.4208600e-02
2.9754911e+00 2.2117233e-01 -1.0591611e-02
3.0134578e+00 2.3634167e-01 -7.3274844e-03
3.0522300e+00 2.4746000e-01 -4.4162200e-03
3.0918078e+00 2.5452733e-01 -1.8578178e-03
3.1321911e+00 2.5754367e-01 3.4772222e-04
3.1733800e+00 2.5650900e-01 2.2004000e-03
3.1733800e+00 2.5650900e-01 2.2004000e-03
3.2145589e+00 2.4093444e-01 1.2740333e-03
3.2521256e+00 2.2397111e-01 -3.7410667e-04
3.2860800e+00 2.0561900e-01 -2.7440200e-03
3.3164222e+00 1.8587811e-01 -5.8357067e-03
3.3431522e+00 1.6474844e-01 -9.6491667e-03
3.3662700e+00 1.4223000e-01 -1.4184400e-02
2.0331600e+00 7.3193300e-01 -1.8602500e-02