# vtk DataFile Version 2.0
test
ASCII
DATASET POLYDATA
POINTS 4361 float
7.1928222e+00 7.6883085e+00 1.1853536e+01
7.3141134e+00 7.7306612e+00 1.1734181e+01
7.4360210e+00 7.7708168e+00 1.1614725e+01
7.5585450e+00 7.8087751e+00 1.1495167e+01
7.6816855e+00 7.8445361e+00 1.1375508e+01
7.8054425e+00 7.8780999e+00 1.1255747e+01
7.9298158e+00 7.9094664e+00 1.1135885e+01
7.9298158e+00 7.9094664e+00 1.1135885e+01
8.0565856e+00 7.9543370e+00 1.1019752e+01
8.1884125e+00 7.9970421e+00 1.0909569e+01
8.3252965e+00 8.0375815e+00 1.0805338e+01
8.4672375e+00 8.0759553e+00 1.0707058e+01
8.6142355e+00 8.1121636e+00 1.0614728e+01
8.7662906e+00 8.1462061e+00 1.0528349e+01
8.7662906e+00 8.1462061e+00 1.0528349e+01
8.9344658e+00 8.1698408e+00 1.0468327e+01
9.1043963e+00 8.1925821e+00 1.0427194e+01
9.2760820e+00 8.2144300e+00 1.0404949e+01
9.4495231e+00 8.2353845e+00 1.0401593e+01
9.6247194e+00 8.2554457e+00 1.0417126e+01
9.8016711e+00 8.2746134e+00 1.0451548e+01
9.8016711e+00 8.2746134e+00 1.0451548e+01
9.9761445e+00 8.2900367e+00 1.0480522e+01
1.0150306e+01 8.3041296e+00 1.0512059e+01
1.0324154e+01 8.3168922e+00 1.0546158e+01
1.0497690e+01 8.3283245e+00 1.0582819e+01
1.0670914e+01 8.3384264e+00 1.0622043e+01
1.0843826e+01 8.3471981e+00 1.0663830e+01
1.0843826e+01 8.3471981e+00 1.0663830e+01
1.1016133e+01 8.3540541e+00 1.0709333e+01
1.1189497e+01 8.3596008e+00 1.0749505e+01
1.1363918e+01 8.3638381e+00 1.0784346e+01
1.1539396e+01 8.3667660e+00 1.0813856e+01
1.1715930e+01 8.3683846e+00 1.0838036e+01
1.1893520e+01 8.3686939e+00 1.0856884e+01
1.1893520e+01 8.3686939e+00 1.0856884e+01
1.2073493e+01 8.3663743e+00 1.0867770e+01
1.2251199e+01 8.3626076e+00 1.0863601e+01
1.2426639e+01 8.3573937e+00 1.0844377e+01
1.2599814e+01 8.3507327e+00 1.0810097e+01
1.2770722e+01 8.3426245e+00 1.0760764e+01
1.2939365e+01 8.3330692e+00 1.0696375e+01
1.2939365e+01 8.3330692e+00 1.0696375e+01
1.3099589e+01 8.3229148e+00 1.0613124e+01
1.3251563e+01 8.3161660e+00 1.0519384e+01
1.3395287e+01 8.3128227e+00 1.0415157e+01
1.3530761e+01 8.3128851e+00 1.0300442e+01
1.3657984e+01 8.3163531e+00 1.0175239e+01
1.3776958e+01 8.3232266e+00 1.0039548e+01
1.3776958e+01 8.3232266e+00 1.0039548e+01
1.3881967e+01 8.3621242e+00 9.8989459e+00
1.3986849e+01 8.3958932e+00 9.7569163e+00
1.4091604e+01 8.4245338e+00 9.6134591e+00
1.4196231e+01 8.4480458e+00 9.4685744e+00
1.4300732e+01 8.4664294e+00 9.3222620e+00
1.4405106e+01 8.4796844e+00 9.1745221e+00
1.4405106e+01 8.4796844e+00 9.1745221e+00
1.4288844e+01 8.3997590e+00 9.0466717e+00
1.4172012e+01 8.3152952e+00 8.9235030e+00
1.4054608e+01 8.2262928e+00 8.8050160e+00
1.3936634e+01 8.1327519e+00 8.6912108e+00
1.3818089e+01 8.0346725e+00 8.5820873e+00
1.3698973e+01 7.9320546e+00 8.4776455e+00
1.3698973e+01 7.9320546e+00 8.4776455e+00
1.3578969e+01 7.8541033e+00 8.3549920e+00
1.3462084e+01 7.7737800e+00 8.2313614e+00
1.3348319e+01 7.6910847e+00 8.1067538e+00
1.3237673e+01 7.6060174e+00 7.9811692e+00
1.3130147e+01 7.5185782e+00 7.8546075e+00
1.3025740e+01 7.4287670e+00 7.7270688e+00
1.3025740e+01 7.4287670e+00 7.7270688e+00
1.2924856e+01 7.3457438e+00 7.5915103e+00
1.2830606e+01 7.2602043e+00 7.4538228e+00
1.2742989e+01 7.1721485e+00 7.3140063e+00
1.2662005e+01 7.0815763e+00 7.1720607e+00
1.2587654e+01 6.9884879e+00 7.0279862e+00
1.2519937e+01 6.8928831e+00 6.8817826e+00
1.2519937e+01 6.8928831e+00 6.8817826e+00
1.2468891e+01 6.7946157e+00 6.7327117e+00
1.2424155e+01 6.6947828e+00 6.5829992e+00
1.2385729e+01 6.5933845e+00 6.4326451e+00
1.2353613e+01 6.4904208e+00 6.2816495e+00
1.2327808e+01 6.3858916e+00 6.1300124e+00
1.2308313e+01 6.2797970e+00 5.9777337e+00
1.2308313e+01 6.2797970e+00 5.9777337e+00
1.2297866e+01 6.1717491e+00 5.8262542e+00
1.2294159e+01 6.0614813e+00 5.6770081e+00
1.2297191e+01 5.9489935e+00 5.5299952e+00
1.2306963e+01 5.8342857e+00 5.3852157e+00
1.2323475e+01 5.7173579e+00 5.2426695e+00
1.2346726e+01 5.5982102e+00 5.1023566e+00
1.2346726e+01 5.5982102e+00 5.1023566e+00
1.2370931e+01 5.4772246e+00 4.9644299e+00
1.2396798e+01 5.3557552e+00 4.8272716e+00
1.2424327e+01 5.2338019e+00 4.6908816e+00
1.2453517e+01 5.1113647e+00 4.5552601e+00
1.2484369e+01 4.9884437e+00 4.4204069e+00
1.2516883e+01 4.8650389e+00 4.2863220e+00
1.2516883e+01 4.8650389e+00 4.2863220e+00
1.2548435e+01 4.7413338e+00 4.1528169e+00
1.2576286e+01 4.6148943e+00 4.0207982e+00
1.2600434e+01 4.4857201e+00 3.8902660e+00
1.2620881e+01 4.3538114e+00 3.7612203e+00
1.2637627e+01 4.2191681e+00 3.6336610e+00
1.2650670e+01 4.0817903e+00 3.5075881e+00
1.2650670e+01 4.0817903e+00 3.5075881e+00
1.2660311e+01 3.9417886e+00 3.3838912e+00
1.2664046e+01 3.8016717e+00 3.2605634e+00
1.2661875e+01 3.6614394e+00 3.1376047e+00
1.2653796e+01 3.5210918e+00 3.0150150e+00
1.2639812e+01 3.3806288e+00 2.8927945e+00
1.2619921e+01 3.2400505e+00 2.7709430e+00
1.2619921e+01 3.2400505e+00 2.7709430e+00
1.2591559e+01 3.0981751e+00 2.6510676e+00
1.2556043e+01 2.9564569e+00 2.5334870e+00
1.2513371e+01 2.8148958e+00 2.4182009e+00
1.2463544e+01 2.6734918e+00 2.3052096e+00
1.2406561e+01 2.5322450e+00 2.1945129e+00
1.2342424e+01 2.3911553e+00 2.0861108e+00
1.2342424e+01 2.3911553e+00 2.0861108e+00
1.2273031e+01 2.2540394e+00 1.9764881e+00
1.2198818e+01 2.1178905e+00 1.8689669e+00
1.2119786e+01 1.9827087e+00 1.7635472e+00
1.2035934e+01 1.8484938e+00 1.6602290e+00
1.1947264e+01 1.7152459e+00 1.5590124e+00
1.1853774e+01 1.5829650e+00 1.4598972e+00
1.1853774e+01 1.5829650e+00 1.4598972e+00
1.1750156e+01 1.4530799e+00 1.3662274e+00
1.1644298e+01 1.3239657e+00 1.2744444e+00
1.1536199e+01 1.1956224e+00 1.1845481e+00
1.1425860e+01 1.0680501e+00 1.0965386e+00
1.1313281e+01 9.4124866e-01 1.0104158e+00
1.1198461e+01 8.1521817e-01 9.2617987e-01
1.1198461e+01 8.1521817e-01 9.2617987e-01
1.1085110e+01 6.8505053e-01 8.4111914e-01
1.0971477e+01 5.5552914e-01 7.5675004e-01
1.0857562e+01 4.2665400e-01 6.7307259e-01
1.0743366e+01 2.9842512e-01 5.9008677e-01
1.0628887e+01 1.7084248e-01 5.0779258e-01
1.0514127e+01 4.3906100e-02 4.2619003e-01
4.7697700e+00 6.7321721e+00 1.1735827e+01
4.7176797e+00 6.6771564e+00 1.1560172e+01
4.6636930e+00 6.6150222e+00 1.1388142e+01
4.6078098e+00 6.5457695e+00 1.1219738e+01
4.5500301e+00 6.4693983e+00 1.1054959e+01
4.4903539e+00 6.3859086e+00 1.0893806e+01
4.4287812e+00 6.2953003e+00 1.0736279e+01
4.4287812e+00 6.2953003e+00 1.0736279e+01
4.3819740e+00 6.2271976e+00 1.0563769e+01
4.3404385e+00 6.1569418e+00 1.0391238e+01
4.3041746e+00 6.0845331e+00 1.0218686e+01
4.2731823e+00 6.0099713e+00 1.0046111e+01
4.2474616e+00 5.9332566e+00 9.8735150e+00
4.2270126e+00 5.8543889e+00 9.7008972e+00
4.2270126e+00 5.8543889e+00 9.7008972e+00
4.2130967e+00 5.7724858e+00 9.5283980e+00
4.2057884e+00 5.6872195e+00 9.3581823e+00
4.2050876e+00 5.5985900e+00 9.1902500e+00
4.2109943e+00 5.5065971e+00 9.0246011e+00
4.2235085e+00 5.4112409e+00 8.8612356e+00
4.2426302e+00 5.3125215e+00 8.7001535e+00
4.2426302e+00 5.3125215e+00 8.7001535e+00
4.2836240e+00 5.2041273e+00 8.5469530e+00
4.3379711e+00 5.0924453e+00 8.4045585e+00
4.4056716e+00 4.9774753e+00 8.2729702e+00
4.4867255e+00 4.8592174e+00 8.1521878e+00
4.5811327e+00 4.7376715e+00 8.0422116e+00
4.6888933e+00 4.6128377e+00 7.9430414e+00
4.6888933e+00 4.6128377e+00 7.9430414e+00
4.7935021e+00 4.4897085e+00 7.8446234e+00
4.8976548e+00 4.3661958e+00 7.7463954e+00
5.0013512e+00 4.2422994e+00 7.6483575e+00
5.1045915e+00 4.1180194e+00 7.5505096e+00
5.2073756e+00 3.9933558e+00 7.4528518e+00
5.3097035e+00 3.8683086e+00 7.3553840e+00
5.3097035e+00 3.8683086e+00 7.3553840e+00
5.4118392e+00 3.7396416e+00 7.2606302e+00
5.5082891e+00 3.6085060e+00 7.1640177e+00
5.5990532e+00 3.4749017e+00 7.0655466e+00
5.6841316e+00 3.3388286e+00 6.9652169e+00
5.7635241e+00 3.2002869e+00 6.8630286e+00
5.8372309e+00 3.0592765e+00 6.7589816e+00
5.8372309e+00 3.0592765e+00 6.7589816e+00
5.9012688e+00 2.9168838e+00 6.6495397e+00
5.9541811e+00 2.7753081e+00 6.5350794e+00
5.9959678e+00 2.6345494e+00 6.4156009e+00
6.0266288e+00 2.4946077e+00 6.2911040e+00
6.0461643e+00 2.3554831e+00 6.1615888e+00
6.0545742e+00 2.2171754e+00 6.0270554e+00
6.0545742e+00 2.2171754e+00 6.0270554e+00
6.0478039e+00 2.0828576e+00 5.8884527e+00
6.0318728e+00 1.9502550e+00 5.7500987e+00
6.0067808e+00 1.8193677e+00 5.6119933e+00
5.9725279e+00 1.6901958e+00 5.4741364e+00
5.9291142e+00 1.5627391e+00 5.3365282e+00
5.8765396e+00 1.4369977e+00 5.1991687e+00
5.8765396e+00 1.4369977e+00 5.1991687e+00
5.8193383e+00 1.3140964e+00 5.0603954e+00
5.7588631e+00 1.1930546e+00 4.9215489e+00
5.6951140e+00 1.0738722e+00 4.7826292e+00
5.6280910e+00 9.5654935e-01 4.6436363e+00
5.5577942e+00 8.4108597e-01 4.5045702e+00
5.4842234e+00 7.2748206e-01 4.3654309e+00
5.4842234e+00 7.2748206e-01 4.3654309e+00
5.4088353e+00 6.0879952e-01 4.2310488e+00
5.3325783e+00 4.8995968e-01 4.0973442e+00
5.2554524e+00 3.7096252e-01 3.9643169e+00
5.1774575e+00 2.5180806e-01 3.8319671e+00
5.0985936e+00 1.3249628e-01 3.7002946e+00
5.0188609e+00 1.3027200e-02 3.5692996e+00
3.5535700e+00 6.5425144e+00 1.3780811e+01
3.6405030e+00 6.6551452e+00 1.3644971e+01
3.7385067e+00 6.7646348e+00 1.3518270e+01
3.8475811e+00 6.8709832e+00 1.3400709e+01
3.9677261e+00 6.9741903e+00 1.3292288e+01
4.0989418e+00 7.0742562e+00 1.3193007e+01
4.2412282e+00 7.1711809e+00 1.3102865e+01
4.2412282e+00 7.1711809e+00 1.3102865e+01
4.4119963e+00 7.2464127e+00 1.3049426e+01
4.5876603e+00 7.3105948e+00 1.3007242e+01
4.7682200e+00 7.3637274e+00 1.2976313e+01
4.9536755e+00 7.4058103e+00 1.2956638e+01
5.1440269e+00 7.4368437e+00 1.2948219e+01
5.3392740e+00 7.4568274e+00 1.2951054e+01
5.3392740e+00 7.4568274e+00 1.2951054e+01
5.5349557e+00 7.4679273e+00 1.2955050e+01
5.7266560e+00 7.4810805e+00 1.2942387e+01
5.9143748e+00 7.4962869e+00 1.2913068e+01
6.0981121e+00 7.5135466e+00 1.2867091e+01
6.2778680e+00 7.5328596e+00 1.2804457e+01
6.4536425e+00 7.5542258e+00 1.2725166e+01
6.4536425e+00 7.5542258e+00 1.2725166e+01
6.6047637e+00 7.5859656e+00 1.2605984e+01
6.7447152e+00 7.6139483e+00 1.2476365e+01
6.8734967e+00 7.6381739e+00 1.2336311e+01
6.9911084e+00 7.6586425e+00 1.2185822e+01
[...]
POINT_DATA 4361
VECTORS U float
3.8959200e+00 1.2254600e+00 -1.3721500e-02
3.9213756e+00 1.1963167e+00 6.1771111e-04
3.9448122e+00 1.1646533e+00 1.2536144e-02
3.9662300e+00 1.1304700e+00 2.2033800e-02
3.9856289e+00 1.0937667e+00 2.9110678e-02
4.0030089e+00 1.0545433e+00 3.3766778e-02
4.0183700e+00 1.0128000e+00 3.6002100e-02
4.0183700e+00 1.0128000e+00 3.6002100e-02
4.0299500e+00 9.8336289e-01 3.7743978e-02
4.0393967e+00 9.5222789e-01 3.5311378e-02
4.0467100e+00 9.1939500e-01 2.8704300e-02
4.0518900e+00 8.8486422e-01 1.7922744e-02
4.0549367e+00 8.4863556e-01 2.9667111e-03
4.0558500e+00 8.1070900e-01 -1.6163800e-02
4.0558500e+00 8.1070900e-01 -1.6163800e-02
4.0643844e+00 7.6507511e-01 -2.7484227e-02
4.0719278e+00 7.2241078e-01 -3.2688693e-02
4.0784800e+00 6.8271600e-01 -3.1777200e-02
4.0840411e+00 6.4599078e-01 -2.4749747e-02
4.0886111e+00 6.1223511e-01 -1.1606333e-02
4.0921900e+00 5.8144900e-01 7.6530400e-03
4.0921900e+00 5.8144900e-01 7.6530400e-03
4.0947144e+00 5.5152500e-01 1.3198822e-02
4.0968711e+00 5.2366267e-01 1.7631542e-02
4.0986600e+00 4.9786200e-01 2.0951200e-02
4.1000811e+00 4.7412300e-01 2.3157796e-02
4.1011344e+00 4.5244567e-01 2.4251329e-02
4.1018200e+00 4.3283000e-01 2.4231800e-02
4.1018200e+00 4.3283000e-01 2.4231800e-02
4.1014511e+00 4.1392167e-01 2.8088967e-02
4.1011378e+00 3.9646033e-01 3.0667367e-02
4.1008800e+00 3.8044600e-01 3.1967000e-02
4.1006778e+00 3.6587867e-01 3.1987867e-02
4.1005311e+00 3.5275833e-01 3.0729967e-02
4.1004400e+00 3.4108500e-01 2.8193300e-02
4.1004400e+00 3.4108500e-01 2.8193300e-02
4.1000244e+00 3.2963967e-01 2.6416233e-02
4.0989078e+00 3.1976100e-01 2.2778200e-02
4.0970900e+00 3.1144900e-01 1.7279200e-02
4.0945711e+00 3.0470367e-01 9.9192333e-03
4.0913511e+00 2.9952500e-01 6.9830000e-04
4.0874300e+00 2.9591300e-01 -1.0383600e-02
4.0874300e+00 2.9591300e-01 -1.0383600e-02
4.0825833e+00 2.9485711e-01 -2.1423078e-02
4.0763167e+00 2.9883578e-01 -3.2696744e-02
4.0686300e+00 3.0784900e-01 -4.4204600e-02
4.0595233e+00 3.2189678e-01 -5.5946644e-02
4.0489967e+00 3.4097911e-01 -6.7922878e-02
4.0370500e+00 3.6509600e-01 -8.0133300e-02
4.0370500e+00 3.6509600e-01 -8.0133300e-02
4.0174478e+00 4.2167022e-01 -9.3079167e-02
4.0003578e+00 4.7341556e-01 -1.0513473e-01
3.9857800e+00 5.2033200e-01 -1.1630000e-01
3.9737144e+00 5.6241956e-01 -1.2657497e-01
3.9641611e+00 5.9967822e-01 -1.3595963e-01
3.9571200e+00 6.3210800e-01 -1.4445400e-01
3.9571200e+00 6.3210800e-01 -1.4445400e-01
3.9357200e+00 6.1583056e-01 -1.2806453e-01
3.9124067e+00 5.9552922e-01 -1.0638417e-01
3.8871800e+00 5.7120400e-01 -7.9412900e-02
3.8600400e+00 5.4285489e-01 -4.7150733e-02
3.8309867e+00 5.1048189e-01 -9.5976667e-03
3.8000200e+00 4.7408500e-01 3.3246300e-02
3.8000200e+00 4.7408500e-01 3.3246300e-02
3.7656489e+00 4.6340567e-01 5.9214722e-02
3.7296289e+00 4.5191300e-01 8.5764956e-02
3.6919600e+00 4.3960700e-01 1.1289700e-01
3.6526422e+00 4.2648767e-01 1.4061086e-01
3.6116756e+00 4.1255500e-01 1.6890652e-01
3.5690600e+00 3.9780900e-01 1.9778400e-01
3.5690600e+00 3.9780900e-01 1.9778400e-01
3.5228933e+00 3.9213656e-01 2.2092300e-01
3.4740600e+00 3.8598789e-01 2.4268167e-01
3.4225600e+00 3.7936300e-01 2.6306000e-01
3.3683933e+00 3.7226189e-01 2.8205800e-01
3.3115600e+00 3.6468456e-01 2.9967567e-01
3.2520600e+00 3.5663100e-01 3.1591300e-01
3.2520600e+00 3.5663100e-01 3.1591300e-01
3.1968556e+00 3.4782522e-01 3.2854344e-01
3.1380822e+00 3.3843156e-01 3.3814544e-01
3.0757400e+00 3.2845000e-01 3.4471900e-01
3.0098289e+00 3.1788056e-01 3.4826411e-01
2.9403489e+00 3.0672322e-01 3.4878078e-01
2.8673000e+00 2.9497800e-01 3.4626900e-01
2.8673000e+00 2.9497800e-01 3.4626900e-01
2.7951556e+00 2.8138211e-01 3.4047911e-01
2.7243789e+00 2.6595944e-01 3.3374511e-01
2.6549700e+00 2.4871000e-01 3.2606700e-01
2.5869289e+00 2.2963378e-01 3.1744478e-01
2.5202556e+00 2.0873078e-01 3.0787844e-01
2.4549500e+00 1.8600100e-01 2.9736800e-01
2.4549500e+00 1.8600100e-01 2.9736800e-01
2.3877322e+00 1.6185586e-01 2.8643344e-01
2.3206622e+00 1.3823519e-01 2.7427144e-01
2.2537400e+00 1.1513900e-01 2.6088200e-01
2.1869656e+00 9.2567289e-02 2.4626511e-01
2.1203389e+00 7.0520056e-02 2.3042078e-01
2.0538600e+00 4.8997300e-02 2.1334900e-01
2.0538600e+00 4.8997300e-02 2.1334900e-01
1.9864233e+00 2.8620889e-02 1.9558467e-01
1.9168067e+00 7.6138222e-03 1.7856533e-01
1.8450100e+00 -1.4023900e-02 1.6229100e-01
1.7710333e+00 -3.6292278e-02 1.4676167e-01
1.6948767e+00 -5.9191311e-02 1.3197733e-01
1.6165400e+00 -8.2721000e-02 1.1793800e-01
1.6165400e+00 -8.2721000e-02 1.1793800e-01
1.5376756e+00 -1.0604133e-01 1.0622156e-01
1.4582856e+00 -1.2629067e-01 9.4903356e-02
1.3783700e+00 -1.4346900e-01 8.3983400e-02
1.2979289e+00 -1.5757633e-01 7.3461689e-02
1.2169622e+00 -1.6861267e-01 6.3338222e-02
1.1354700e+00 -1.7657800e-01 5.3613000e-02
1.1354700e+00 -1.7657800e-01 5.3613000e-02
1.0536609e+00 -1.8180656e-01 4.6303122e-02
9.7458456e-01 -1.8441389e-01 4.0647822e-02
8.9824100e-01 -1.8440000e-01 3.6647100e-02
8.2463022e-01 -1.8176489e-01 3.4300956e-02
7.5375222e-01 -1.7650856e-01 3.3609389e-02
6.8560700e-01 -1.6863100e-01 3.4572400e-02
6.8560700e-01 -1.6863100e-01 3.4572400e-02
6.2458767e-01 -1.5583748e-01 3.2545367e-02
5.6805300e-01 -1.4258548e-01 3.0524100e-02
5.1600300e-01 -1.2887500e-01 2.8508600e-02
4.6843767e-01 -1.1470604e-01 2.6498867e-02
4.2535700e-01 -1.0007861e-01 2.4494900e-02
3.8676100e-01 -8.4992700e-02 2.2496700e-02
3.8676100e-01 -8.4992700e-02 2.2496700e-02
3.4511144e-01 -6.9501956e-02 2.3403500e-02
3.0599044e-01 -5.4600923e-02 2.4464067e-02
2.6939800e-01 -4.0289600e-02 2.5678400e-02
2.3533411e-01 -2.6567988e-02 2.7046500e-02
2.0379878e-01 -1.3436087e-02 2.8568367e-02
1.7479200e-01 -8.9389600e-04 3.0244000e-02
1.7479200e-01 -8.9389600e-04 3.0244000e-02
1.4976932e-01 6.3128800e-03 2.9888200e-02
1.2580732e-01 1.3623612e-02 2.9639200e-02
1.0290600e-01 2.1038300e-02 2.9497000e-02
8.1065356e-02 2.8556944e-02 2.9461600e-02
6.0285389e-02 3.6179544e-02 2.9533000e-02
4.0566100e-02 4.3906100e-02 2.9711200e-02
3.5516500e+00 1.5206600e+00 9.1272100e-02
3.5221467e+00 1.5018756e+00 1.0313750e-01
3.4884467e+00 1.4765589e+00 1.1870913e-01
3.4505500e+00 1.4447100e+00 1.3798700e-01
3.4084567e+00 1.4063289e+00 1.6097110e-01
3.3621667e+00 1.3614156e+00 1.8766143e-01
3.3116800e+00 1.3099700e+00 2.1805800e-01
3.3116800e+00 1.3099700e+00 2.1805800e-01
3.2714667e+00 1.2822344e+00 2.3407611e-01
3.2285633e+00 1.2541944e+00 2.4901744e-01
3.1829700e+00 1.2258500e+00 2.6288200e-01
3.1346867e+00 1.1972011e+00 2.7566978e-01
3.0837133e+00 1.1682478e+00 2.8738078e-01
3.0300500e+00 1.1389900e+00 2.9801500e-01
3.0300500e+00 1.1389900e+00 2.9801500e-01
2.9701744e+00 1.1094971e+00 3.0632000e-01
2.9052711e+00 1.0788338e+00 3.1086100e-01
2.8353400e+00 1.0470000e+00 3.1163800e-01
2.7603811e+00 1.0139958e+00 3.0865100e-01
2.6803944e+00 9.7982111e-01 3.0190000e-01
2.5953800e+00 9.4447600e-01 2.9138500e-01
2.5953800e+00 9.4447600e-01 2.9138500e-01
2.5213444e+00 9.0101344e-01 2.7877456e-01
2.4545511e+00 8.5556144e-01 2.6982456e-01
2.3950000e+00 8.0812000e-01 2.6453500e-01
2.3426911e+00 7.5868911e-01 2.6290589e-01
2.2976244e+00 7.0726878e-01 2.6493722e-01
2.2598000e+00 6.5385900e-01 2.7062900e-01
2.2598000e+00 6.5385900e-01 2.7062900e-01
2.2164967e+00 6.0314489e-01 2.7157967e-01
2.1716467e+00 5.5369489e-01 2.6956767e-01
2.1252500e+00 5.0550900e-01 2.6459300e-01
2.0773067e+00 4.5858722e-01 2.5665567e-01
2.0278167e+00 4.1292956e-01 2.4575567e-01
1.9767800e+00 3.6853600e-01 2.3189300e-01
1.9767800e+00 3.6853600e-01 2.3189300e-01
1.9260567e+00 3.2256952e-01 2.1966344e-01
1.8718600e+00 2.7702919e-01 2.0632944e-01
1.8141900e+00 2.3191500e-01 1.9189100e-01
1.7530467e+00 1.8722696e-01 1.7634811e-01
1.6884300e+00 1.4296506e-01 1.5970078e-01
1.6203400e+00 9.9129300e-02 1.4194900e-01
1.6203400e+00 9.9129300e-02 1.4194900e-01
1.5461311e+00 5.7871378e-02 1.2168109e-01
1.4682211e+00 2.1449344e-02 1.0073282e-01
1.3866100e+00 -1.0136800e-02 7.9104200e-02
1.3012978e+00 -3.6887056e-02 5.6795222e-02
1.2122844e+00 -5.8801422e-02 3.3805889e-02
1.1195700e+00 -7.5879900e-02 1.0136200e-02
1.1195700e+00 -7.5879900e-02 1.0136200e-02
1.0240930e+00 -8.4353589e-02 -1.0884744e-02
9.3201667e-01 -8.9554756e-02 -2.7589778e-02
8.4334100e-01 -9.1483400e-02 -3.9978900e-02
7.5806600e-01 -9.0139522e-02 -4.8052111e-02
6.7619167e-01 -8.5523122e-02 -5.1809411e-02
5.9771800e-01 -7.7634200e-02 -5.1250800e-02
5.9771800e-01 -7.7634200e-02 -5.1250800e-02
5.2771133e-01 -6.8295122e-02 -5.0402578e-02
4.6255433e-01 -5.8289489e-02 -4.8918678e-02
4.0224700e-01 -4.7617300e-02 -4.6799100e-02
3.4678933e-01 -3.6278556e-02 -4.4043844e-02
2.9618133e-01 -2.4273256e-02 -4.0652911e-02
2.5042300e-01 -1.1601400e-02 -3.6626300e-02
2.5042300e-01 -1.1601400e-02 -3.6626300e-02
2.0725710e-01 -5.5465778e-03 -2.8269589e-02
1.6551343e-01 -2.7177778e-04 -1.9296869e-02
1.2519200e-01 4.2230000e-03 -9.7081400e-03
8.6292800e-02 7.9377556e-03 4.9659778e-04
4.8815833e-02 1.0872489e-02 1.1317344e-02
1.2761100e-02 1.3027200e-02 2.2754100e-02
3.5535700e+00 1.5728100e+00 -1.3897200e-01
3.5898056e+00 1.5823667e+00 -1.1542520e-01
3.6237489e+00 1.5873467e+00 -9.2882000e-02
3.6554000e+00 1.5877500e+00 -7.1342400e-02
3.6847589e+00 1.5835767e+00 -5.0806400e-02
3.7118256e+00 1.5748267e+00 -3.1274000e-02
3.7366000e+00 1.5615000e+00 -1.2745200e-02
3.7366000e+00 1.5615000e+00 -1.2745200e-02
3.7555744e+00 1.5322678e+00 -2.1233611e-03
3.7723578e+00 1.5007744e+00 3.6741022e-03
3.7869500e+00 1.4670200e+00 4.6471900e-03
3.7993511e+00 1.4310044e+00 7.9590222e-04
3.8095611e+00 1.3927278e+00 -7.8797611e-03
3.8175800e+00 1.3521900e+00 -2.1379800e-02
3.8175800e+00 1.3521900e+00 -2.1379800e-02
3.8244800e+00 1.3075278e+00 -3.2753111e-02
3.8300300e+00 1.2697811e+00 -4.1930611e-02
3.8342300e+00 1.2389500e+00 -4.8912300e-02
3.8370800e+00 1.2150344e+00 -5.3698178e-02
3.8385800e+00 1.1980344e+00 -5.6288244e-02
3.8387300e+00 1.1879500e+00 -5.6682500e-02
3.8387300e+00 1.1879500e+00 -5.6682500e-02
3.8440089e+00 1.1962378e+00 -4.9557056e-02
3.8509889e+00 1.2037111e+00 -4.2417722e-02
3.8596700e+00 1.2103700e+00 -3.5264500e-02
3.8700522e+00 1.2162144e+00 -2.8097389e-02
3.8821356e+00 1.2212444e+00 -2.0916389e-02
3.8959200e+00 1.2254600e+00 -1.3721500e-02
3.4993900e+00 1.5422900e+00 -1.1867400e-02
3.5122167e+00 1.5463433e+00 1.7562711e-02
3.5233967e+00 1.5473333e+00 4.2096744e-02
3.5329300e+00 1.5452600e+00 6.1734700e-02
3.5408167e+00 1.5401233e+00 7.6476578e-02
3.5470567e+00 1.5319233e+00 8.6322378e-02
3.5516500e+00 1.5206600e+00 9.1272100e-02
3.9571200e+00 6.3210800e-01 -1.4445400e-01
3.9015056e+00 5.6813133e-01 -1.3784303e-01
3.8426156e+00 5.0596167e-01 -1.2837237e-01
3.7804500e+00 4.4559900e-01 -1.1604200e-01
3.7150089e+00 3.8704333e-01 -1.0085193e-01
3.6462922e+00 3.3029467e-01 -8.2802167e-02
3.5743000e+00 2.7535300e-01 -6.1892700e-02
3.5743000e+00 2.7535300e-01 -6.1892700e-02
3.5290044e+00 2.3579978e-01 -4.7333556e-02
3.4814711e+00 2.0042378e-01 -3.0583889e-02
3.4317000e+00 1.6922500e-01 -1.1643700e-02
3.3796911e+00 1.4220344e-01 9.4870111e-03
3.3254444e+00 1.1935911e-01 3.2808244e-02
3.2689600e+00 1.0069200e-01 5.8320000e-02
3.2689600e+00 1.0069200e-01 5.8320000e-02
3.2049189e+00 8.2147111e-02 8.1525000e-02
3.1405789e+00 6.5506578e-02 1.0137333e-01
3.0759400e+00 5.0770400e-02 1.1786500e-01
3.0110022e+00 3.7938578e-02 1.3100000e-01
2.9457656e+00 2.7011111e-02 1.4077833e-01
2.8802300e+00 1.7988000e-02 1.4720000e-01
2.8802300e+00 1.7988000e-02 1.4720000e-01
2.8098478e+00 1.0606924e-02 1.4749811e-01
2.7400411e+00 4.3794849e-03 1.4464878e-01
2.6708100e+00 -6.9431700e-04 1.3865200e-01
2.6021544e+00 -4.6144818e-03 1.2950778e-01
2.5340744e+00 -7.3810094e-03 1.1721611e-01
2.4665700e+00 -8.9939000e-03 1.0177700e-01
2.4665700e+00 -8.9939000e-03 1.0177700e-01
2.4068922e+00 -6.7834222e-03 8.9541978e-02
2.3490322e+00 -3.4132089e-03 7.7077911e-02
2.2929900e+00 1.1167400e-03 6.4384800e-02
2.2387656e+00 6.8064244e-03 5.1462644e-02
2.1863589e+00 1.3655844e-02 3.8311444e-02
2.1357700e+00 2.1665000e-02 2.4931200e-02
2.1357700e+00 2.1665000e-02 2.4931200e-02
2.0849444e+00 2.8102189e-02 9.6851333e-03
2.0339444e+00 3.5165589e-02 -5.6323000e-03
1.9827700e+00 4.2855200e-02 -2.1021100e-02
1.9314211e+00 5.1171022e-02 -3.6481267e-02
1.8798978e+00 6.0113056e-02 -5.2012800e-02
1.8282000e+00 6.9681300e-02 -6.7615700e-02
1.8282000e+00 6.9681300e-02 -6.7615700e-02
1.7787911e+00 7.7801167e-02 -8.2008389e-02
1.7270811e+00 8.7318200e-02 -9.5108822e-02
1.6730700e+00 9.8232400e-02 -1.0691700e-01
1.6167578e+00 1.1054377e-01 -1.1743292e-01
1.5581444e+00 1.2425230e-01 -1.2665659e-01
1.4972300e+00 1.3935800e-01 -1.3458800e-01
1.4972300e+00 1.3935800e-01 -1.3458800e-01
1.4311400e+00 1.5747822e-01 -1.4150444e-01
1.3639467e+00 1.7280389e-01 -1.4692678e-01
1.2956500e+00 1.8533500e-01 -1.5085500e-01
1.2262500e+00 1.9507156e-01 -1.5328911e-01
1.1557467e+00 2.0201356e-01 -1.5422911e-01
1.0841400e+00 2.0616100e-01 -1.5367500e-01
1.0841400e+00 2.0616100e-01 -1.5367500e-01
1.0056937e+00 2.0756311e-01 -1.5189097e-01
9.2983767e-01 2.0660844e-01 -1.4638630e-01
8.5657200e-01 2.0329700e-01 -1.3716100e-01
7.8589667e-01 1.9762878e-01 -1.2421507e-01
7.1781167e-01 1.8960378e-01 -1.0754850e-01
6.5231700e-01 1.7922200e-01 -8.7161300e-02
6.5231700e-01 1.7922200e-01 -8.7161300e-02
5.8084633e-01 1.7348833e-01 -5.0189822e-02
5.1183867e-01 1.6518667e-01 -1.5636456e-02
4.4529400e-01 1.5431700e-01 1.6498800e-02
3.8121233e-01 1.4087933e-01 4.6215944e-02
3.1959367e-01 1.2487367e-01 7.3514978e-02
2.6043800e-01 1.0630000e-01 9.8395900e-02
2.6043800e-01 1.0630000e-01 9.8395900e-02
2.2614040e-01 8.8858133e-02 8.5029942e-02
1.8973707e-01 6.9321233e-02 7.0257009e-02
1.5122800e-01 4.7689300e-02 5.4077100e-02
1.1061320e-01 2.3962333e-02 3.6490216e-02
6.7892667e-02 -1.8596667e-03 1.7496356e-02
2.3066400e-02 -2.9776700e-02 -2.9044800e-03
1.1817500e+01 7.0605200e-01 1.4139200e-01
1.1787222e+01 6.4259367e-01 1.5956867e-01
1.1755622e+01 5.8175633e-01 1.7721033e-01
1.1722700e+01 5.2354000e-01 1.9431700e-01
1.1688456e+01 4.6794467e-01 2.1088867e-01
1.1652889e+01 4.1497033e-01 2.2692533e-01
1.1616000e+01 3.6461700e-01 2.4242700e-01
1.1616000e+01 3.6461700e-01 2.4242700e-01
1.1581589e+01 3.2717833e-01 2.5540533e-01
1.1545356e+01 2.9932433e-01 2.6678300e-01
1.1507300e+01 2.8105500e-01 2.7656000e-01
1.1467422e+01 2.7237033e-01 2.8473633e-01
1.1425722e+01 2.7327033e-01 2.9131200e-01
1.1382200e+01 2.8375500e-01 2.9628700e-01
1.1382200e+01 2.8375500e-01 2.9628700e-01
1.1342022e+01 2.9144756e-01 2.9782856e-01
1.1299589e+01 3.0074022e-01 2.9932856e-01
1.1254900e+01 3.1163300e-01 3.0078700e-01
1.1207956e+01 3.2412589e-01 3.0220389e-01
1.1158756e+01 3.3821889e-01 3.0357922e-01
1.1107300e+01 3.5391200e-01 3.0491300e-01
1.1107300e+01 3.5391200e-01 3.0491300e-01
1.1038156e+01 3.7643500e-01 3.1135056e-01
1.0971289e+01 3.8815500e-01 3.1748522e-01
1.0906700e+01 3.8907200e-01 3.2331700e-01
1.0844389e+01 3.7918600e-01 3.2884589e-01
1.0784356e+01 3.5849700e-01 3.3407189e-01
1.0726600e+01 3.2700500e-01 3.3899500e-01
1.0726600e+01 3.2700500e-01 3.3899500e-01
1.0679033e+01 2.8908221e-01 3.3276333e-01
1.0633867e+01 2.5080221e-01 3.2333433e-01
1.0591100e+01 2.1216500e-01 3.1070800e-01
1.0550733e+01 1.7317058e-01 2.9488433e-01
1.0512767e+01 1.3381894e-01 2.7586333e-01
1.0477200e+01 9.4110100e-02 2.5364500e-01
1.0477200e+01 9.4110100e-02 2.5364500e-01
1.0439956e+01 1.3774872e-01 2.5788989e-01
1.0398422e+01 1.7908002e-01 2.6049722e-01
1.0352600e+01 2.1810400e-01 2.6146700e-01
1.0302489e+01 2.5482066e-01 2.6079922e-01
1.0248089e+01 2.8922999e-01 2.5849389e-01
1.0189400e+01 3.2133200e-01 2.5455100e-01
1.0189400e+01 3.2133200e-01 2.5455100e-01
1.0129764e+01 3.4466678e-01 2.4099833e-01
1.0071698e+01 3.5951244e-01 2.2403900e-01
1.0015200e+01 3.6586900e-01 2.0367300e-01
9.9602711e+00 3.6373644e-01 1.7990033e-01
9.9069111e+00 3.5311478e-01 1.5272100e-01
9.8551200e+00 3.3400400e-01 1.2213500e-01
9.8551200e+00 3.3400400e-01 1.2213500e-01
9.8044256e+00 3.0316533e-01 9.8593144e-02
9.7507422e+00 2.7231033e-01 7.4265344e-02
9.6940700e+00 2.4143900e-01 4.9151600e-02
9.6344089e+00 2.1055133e-01 2.3251911e-02
9.5717589e+00 1.7964733e-01 -3.4337222e-03
9.5061200e+00 1.4872700e-01 -3.0905300e-02
9.5061200e+00 1.4872700e-01 -3.0905300e-02
9.4303344e+00 1.2383278e-01 -6.2298722e-02
9.3521711e+00 1.0822778e-01 -8.9800289e-02
9.2716300e+00 1.0191200e-01 -1.1341000e-01
9.1887111e+00 1.0488544e-01 -1.3312786e-01
9.1034144e+00 1.1714811e-01 -1.4895386e-01
9.0157400e+00 1.3870000e-01 -1.6088800e-01
9.0157400e+00 1.3870000e-01 -1.6088800e-01
8.9346244e+00 1.7319711e-01 -1.6241511e-01
8.8603511e+00 2.0710344e-01 -1.6338544e-01
8.7929200e+00 2.4041900e-01 -1.6379900e-01
8.7323311e+00 2.7314378e-01 -1.6365578e-01
8.6785844e+00 3.0527778e-01 -1.6295578e-01
8.6316800e+00 3.3682100e-01 -1.6169900e-01
8.8206000e+00 4.0953800e-01 -2.1935500e-01
8.7988856e+00 3.9039878e-01 -2.1204789e-01
8.7732622e+00 3.7406744e-01 -2.0381989e-01
8.7437300e+00 3.6054400e-01 -1.9467100e-01
8.7102889e+00 3.4982844e-01 -1.8460122e-01
8.6729389e+00 3.4192078e-01 -1.7361056e-01
8.6316800e+00 3.3682100e-01 -1.6169900e-01
1.1257600e+01 7.6232100e-01 1.7880200e-01
1.1219256e+01 7.3851000e-01 1.5627806e-01
1.1179356e+01 7.1384300e-01 1.3161039e-01
1.1137900e+01 6.8832000e-01 1.0479900e-01
1.1094889e+01 6.6194100e-01 7.5843889e-02
1.1050322e+01 6.3470600e-01 4.4745056e-02
1.1004200e+01 6.0661500e-01 1.1502500e-02
1.1004200e+01 6.0661500e-01 1.1502500e-02
1.0955822e+01 5.6818267e-01 -2.3834478e-02
1.0908656e+01 5.3147333e-01 -4.9936611e-02
1.0862700e+01 4.9648700e-01 -6.6803900e-02
1.0817956e+01 4.6322367e-01 -7.4436344e-02
1.0774422e+01 4.3168333e-01 -7.2833944e-02
1.0732100e+01 4.0186600e-01 -6.1996700e-02
1.0732100e+01 4.0186600e-01 -6.1996700e-02
1.0676256e+01 3.9898556e-01 -2.2058278e-02
1.0617722e+01 3.9902856e-01 1.6501622e-02
1.0556500e+01 4.0199500e-01 5.3683000e-02
1.0492589e+01 4.0788489e-01 8.9485856e-02
1.0425989e+01 4.1669822e-01 1.2391019e-01
1.0356700e+01 4.2843500e-01 1.5695600e-01
1.0356700e+01 4.2843500e-01 1.5695600e-01
1.0287847e+01 4.3523544e-01 1.8559456e-01
1.0215280e+01 4.3853744e-01 2.1147989e-01
1.0139000e+01 4.3834100e-01 2.3461200e-01
1.0059007e+01 4.3464611e-01 2.5499089e-01
9.9753000e+00 4.2745278e-01 2.7261656e-01
9.8878800e+00 4.1676100e-01 2.8748900e-01
9.8878800e+00 4.1676100e-01 2.8748900e-01
9.7908211e+00 3.8876744e-01 2.5932314e-01
9.6910444e+00 3.7013611e-01 2.2132048e-01
9.5885500e+00 3.6086700e-01 1.7348100e-01
9.4833378e+00 3.6096011e-01 1.1580471e-01
9.3754078e+00 3.7041544e-01 4.8291611e-02
9.2647600e+00 3.8923300e-01 -2.9058300e-02
9.2647600e+00 3.8923300e-01 -2.9058300e-02
9.1673000e+00 4.0536744e-01 -8.5799056e-02
9.0792133e+00 4.1640178e-01 -1.3252996e-01
9.0005000e+00 4.2233600e-01 -1.6925100e-01
8.9311600e+00 4.2317011e-01 -1.9596219e-01
8.8711933e+00 4.1890411e-01 -2.1266352e-01
8.8206000e+00 4.0953800e-01 -2.1935500e-01
6.5986400e+00 8.2186800e-01 -1.8945700e-01
6.6499433e+00 7.7467256e-01 -1.7461011e-01
6.7103733e+00 7.2784956e-01 -1.6357078e-01
6.7799300e+00 6.8139900e-01 -1.5633900e-01
6.8586133e+00 6.3532089e-01 -1.5291478e-01
6.9464233e+00 5.8961522e-01 -1.5329811e-01
7.0433600e+00 5.4428200e-01 -1.5748900e-01
7.0433600e+00 5.4428200e-01 -1.5748900e-01
7.1555678e+00 5.2474256e-01 -1.5689078e-01
7.2716944e+00 5.1534389e-01 -1.5458911e-01
7.3917400e+00 5.1608600e-01 -1.5058400e-01
7.5157044e+00 5.2696889e-01 -1.4487544e-01
7.6435878e+00 5.4799256e-01 -1.3746344e-01
7.7753900e+00 5.7915700e-01 -1.2834800e-01
7.7753900e+00 5.7915700e-01 -1.2834800e-01
7.8964678e+00 6.1441500e-01 -1.2742622e-01
8.0139978e+00 6.4014700e-01 -1.2867956e-01
8.1279800e+00 6.5635300e-01 -1.3210800e-01
8.2384144e+00 6.6303300e-01 -1.3771156e-01
8.3453011e+00 6.6018700e-01 -1.4549022e-01
8.4486400e+00 6.4781500e-01 -1.5544400e-01
8.4486400e+00 6.4781500e-01 -1.5544400e-01
8.5330944e+00 6.1149356e-01 -1.6861611e-01
8.6085644e+00 5.7381556e-01 -1.8078011e-01
8.6750500e+00 5.3478100e-01 -1.9193600e-01
8.7325511e+00 4.9438989e-01 -2.0208378e-01
8.7810678e+00 4.5264222e-01 -2.1122344e-01
8.8206000e+00 4.0953800e-01 -2.1935500e-01