# vtk DataFile Version 2.0
test
ASCII
DATASET POLYDATA
POINTS 4361 float
6.3201722e+00 7.4284535e+00 1.1857672e+01
6.4384145e+00 7.4770946e+00 1.1736295e+01
6.5578088e+00 7.5239578e+00 1.1615397e+01
6.6783550e+00 7.5690431e+00 1.1494976e+01
6.8000533e+00 7.6123504e+00 1.1375033e+01
6.9229036e+00 7.6538799e+00 1.1255568e+01
7.0469058e+00 7.6936314e+00 1.1136582e+01
7.0469058e+00 7.6936314e+00 1.1136582e+01
7.1735656e+00 7.7438179e+00 1.1021356e+01
7.3057458e+00 7.7920186e+00 1.0913052e+01
7.4434465e+00 7.8382335e+00 1.0811670e+01
7.5866675e+00 7.8824626e+00 1.0717210e+01
7.7354088e+00 7.9247058e+00 1.0629673e+01
7.8896706e+00 7.9649631e+00 1.0549058e+01
7.8896706e+00 7.9649631e+00 1.0549058e+01
8.0577358e+00 7.9969357e+00 1.0493076e+01
8.2276096e+00 8.0273417e+00 1.0453946e+01
8.3992920e+00 8.0561810e+00 1.0431667e+01
8.5727831e+00 8.0834538e+00 1.0426239e+01
8.7480827e+00 8.1091599e+00 1.0437662e+01
8.9251911e+00 8.1332994e+00 1.0465936e+01
8.9251911e+00 8.1332994e+00 1.0465936e+01
9.1000412e+00 8.1535227e+00 1.0492210e+01
9.2745089e+00 8.1721053e+00 1.0521693e+01
9.4485942e+00 8.1890472e+00 1.0554387e+01
9.6222971e+00 8.2043485e+00 1.0590291e+01
9.7956175e+00 8.2180091e+00 1.0629406e+01
9.9685556e+00 8.2300291e+00 1.0671731e+01
9.9685556e+00 8.2300291e+00 1.0671731e+01
1.0141099e+01 8.2401762e+00 1.0716596e+01
1.0314616e+01 8.2486635e+00 1.0756771e+01
1.0489108e+01 8.2554911e+00 1.0792255e+01
1.0664575e+01 8.2606588e+00 1.0823049e+01
1.0841015e+01 8.2641668e+00 1.0849152e+01
1.1018430e+01 8.2660149e+00 1.0870564e+01
1.1018430e+01 8.2660149e+00 1.0870564e+01
1.1198426e+01 8.2650766e+00 1.0883599e+01
1.1376399e+01 8.2624839e+00 1.0881873e+01
1.1552349e+01 8.2582367e+00 1.0865386e+01
1.1726277e+01 8.2523350e+00 1.0834137e+01
1.1898182e+01 8.2447789e+00 1.0788127e+01
1.2068065e+01 8.2355682e+00 1.0727356e+01
1.2068065e+01 8.2355682e+00 1.0727356e+01
1.2230138e+01 8.2246767e+00 1.0648182e+01
1.2383645e+01 8.2162695e+00 1.0557695e+01
1.2528587e+01 8.2103467e+00 1.0455895e+01
1.2664963e+01 8.2069083e+00 1.0342782e+01
1.2792773e+01 8.2059543e+00 1.0218356e+01
1.2912018e+01 8.2074846e+00 1.0082618e+01
1.2912018e+01 8.2074846e+00 1.0082618e+01
1.3016725e+01 8.2362219e+00 9.9399471e+00
1.3120843e+01 8.2609416e+00 9.7960937e+00
1.3224374e+01 8.2816438e+00 9.6510576e+00
1.3327316e+01 8.2983285e+00 9.5048390e+00
1.3429670e+01 8.3109957e+00 9.3574379e+00
1.3531436e+01 8.3196454e+00 9.2088541e+00
1.3531436e+01 8.3196454e+00 9.2088541e+00
1.3420587e+01 8.2423812e+00 9.0786036e+00
1.3309432e+01 8.1608580e+00 8.9520567e+00
1.3197968e+01 8.0750758e+00 8.8292134e+00
1.3086197e+01 7.9850347e+00 8.7100738e+00
1.2974119e+01 7.8907346e+00 8.5946379e+00
1.2861733e+01 7.7921756e+00 8.4829055e+00
1.2861733e+01 7.7921756e+00 8.4829055e+00
1.2748046e+01 7.7156087e+00 8.3564438e+00
1.2637712e+01 7.6374318e+00 8.2284295e+00
1.2530729e+01 7.5576447e+00 8.0988628e+00
1.2427097e+01 7.4762475e+00 7.9677436e+00
1.2326818e+01 7.3932403e+00 7.8350719e+00
1.2229890e+01 7.3086230e+00 7.7008478e+00
1.2229890e+01 7.3086230e+00 7.7008478e+00
1.2138084e+01 7.2282253e+00 7.5597724e+00
1.2053450e+01 7.1454682e+00 7.4166416e+00
1.1975989e+01 7.0603515e+00 7.2714553e+00
1.1905699e+01 6.9728752e+00 7.1242135e+00
1.1842582e+01 6.8830394e+00 6.9749163e+00
1.1786637e+01 6.7908441e+00 6.8235636e+00
1.1786637e+01 6.7908441e+00 6.8235636e+00
1.1745375e+01 6.6960823e+00 6.6704260e+00
1.1712262e+01 6.5997745e+00 6.5169995e+00
1.1687299e+01 6.5019205e+00 6.3632841e+00
1.1670484e+01 6.4025204e+00 6.2092799e+00
1.1661819e+01 6.3015742e+00 6.0549867e+00
1.1661303e+01 6.1990820e+00 5.9004047e+00
1.1661303e+01 6.1990820e+00 5.9004047e+00
1.1669756e+01 6.0950514e+00 5.7476403e+00
1.1684982e+01 5.9891233e+00 5.5976102e+00
1.1706981e+01 5.8812975e+00 5.4503142e+00
1.1735753e+01 5.7715740e+00 5.3057525e+00
1.1771298e+01 5.6599529e+00 5.1639249e+00
1.1813616e+01 5.5464342e+00 5.0248316e+00
1.1813616e+01 5.5464342e+00 5.0248316e+00
1.1857956e+01 5.4317561e+00 4.8880368e+00
1.1903899e+01 5.3164320e+00 4.7523718e+00
1.1951447e+01 5.2004618e+00 4.6178366e+00
1.2000598e+01 5.0838455e+00 4.4844313e+00
1.2051354e+01 4.9665831e+00 4.3521558e+00
1.2103713e+01 4.8486747e+00 4.2210100e+00
1.2103713e+01 4.8486747e+00 4.2210100e+00
1.2154720e+01 4.7295558e+00 4.0907963e+00
1.2202293e+01 4.6076001e+00 3.9617763e+00
1.2246434e+01 4.4828074e+00 3.8339500e+00
1.2287143e+01 4.3551778e+00 3.7073175e+00
1.2324418e+01 4.2247114e+00 3.5818787e+00
1.2358260e+01 4.0914081e+00 3.4576337e+00
1.2358260e+01 4.0914081e+00 3.4576337e+00
1.2387643e+01 3.9552941e+00 3.3349935e+00
1.2410254e+01 3.8182652e+00 3.2126894e+00
1.2426095e+01 3.6803214e+00 3.0907216e+00
1.2435164e+01 3.5414627e+00 2.9690899e+00
1.2437462e+01 3.4016891e+00 2.8477944e+00
1.2432989e+01 3.2610005e+00 2.7268351e+00
1.2432989e+01 3.2610005e+00 2.7268351e+00
1.2420323e+01 3.1180984e+00 2.6079776e+00
1.2399523e+01 2.9750974e+00 2.4913318e+00
1.2370590e+01 2.8319978e+00 2.3768977e+00
1.2333523e+01 2.6887994e+00 2.2646753e+00
1.2288323e+01 2.5455022e+00 2.1546645e+00
1.2234990e+01 2.4021063e+00 2.0468655e+00
1.2234990e+01 2.4021063e+00 2.0468655e+00
1.2174275e+01 2.2627182e+00 1.9381727e+00
1.2108021e+01 2.1244283e+00 1.8317196e+00
1.2036227e+01 1.9872367e+00 1.7275063e+00
1.1958893e+01 1.8511433e+00 1.6255327e+00
1.1876019e+01 1.7161481e+00 1.5257988e+00
1.1787606e+01 1.5822512e+00 1.4283047e+00
1.1787606e+01 1.5822512e+00 1.4283047e+00
1.1689888e+01 1.4507939e+00 1.3357083e+00
1.1589530e+01 1.3202344e+00 1.2450830e+00
1.1486531e+01 1.1905728e+00 1.1564288e+00
1.1380892e+01 1.0618091e+00 1.0697456e+00
1.1272613e+01 9.3394333e-01 9.8503341e-01
1.1161693e+01 8.0697543e-01 9.0229229e-01
1.1161693e+01 8.0697543e-01 9.0229229e-01
1.1052167e+01 6.7669883e-01 8.1974185e-01
1.0942324e+01 5.4674722e-01 7.3779955e-01
1.0832164e+01 4.1712060e-01 6.5646539e-01
1.0721688e+01 2.8781898e-01 5.7573936e-01
1.0610895e+01 1.5884234e-01 4.9562148e-01
1.0499786e+01 3.0190700e-02 4.1611173e-01
3.9605100e+00 6.4382521e+00 1.1752478e+01
3.9147653e+00 6.3878020e+00 1.1573693e+01
3.8678119e+00 6.3315078e+00 1.1397374e+01
3.8196498e+00 6.2693695e+00 1.1223521e+01
3.7702790e+00 6.2013872e+00 1.1052134e+01
3.7196995e+00 6.1275608e+00 1.0883214e+01
3.6679112e+00 6.0478903e+00 1.0716760e+01
3.6679112e+00 6.0478903e+00 1.0716760e+01
3.6291596e+00 5.9867990e+00 1.0539511e+01
3.5961841e+00 5.9235373e+00 1.0362367e+01
3.5689846e+00 5.8581051e+00 1.0185328e+01
3.5475612e+00 5.7905024e+00 1.0008392e+01
3.5319138e+00 5.7207294e+00 9.8315610e+00
3.5220426e+00 5.6487859e+00 9.6548342e+00
3.5220426e+00 5.6487859e+00 9.6548342e+00
3.5210778e+00 5.5719681e+00 9.4791870e+00
3.5277162e+00 5.4916211e+00 9.3064623e+00
3.5419576e+00 5.4077450e+00 9.1366600e+00
3.5638021e+00 5.3203396e+00 8.9697801e+00
3.5932496e+00 5.2294051e+00 8.8058226e+00
3.6303002e+00 5.1349415e+00 8.6447875e+00
3.6303002e+00 5.1349415e+00 8.6447875e+00
3.6869262e+00 5.0331727e+00 8.4919695e+00
3.7560800e+00 4.9289409e+00 8.3499088e+00
3.8377616e+00 4.8222463e+00 8.2186052e+00
3.9319710e+00 4.7130887e+00 8.0980587e+00
4.0387082e+00 4.6014682e+00 7.9882695e+00
4.1579733e+00 4.4873847e+00 7.8892374e+00
4.1579733e+00 4.4873847e+00 7.8892374e+00
4.2745443e+00 4.3746028e+00 7.7912775e+00
4.3912236e+00 4.2612216e+00 7.6943085e+00
4.5080112e+00 4.1472414e+00 7.5983305e+00
4.6249070e+00 4.0326619e+00 7.5033434e+00
4.7419111e+00 3.9174833e+00 7.4093472e+00
4.8590235e+00 3.8017056e+00 7.3163420e+00
4.8590235e+00 3.8017056e+00 7.3163420e+00
4.9776059e+00 3.6829502e+00 7.2275766e+00
5.0914191e+00 3.5615636e+00 7.1368018e+00
5.2004632e+00 3.4375457e+00 7.0440176e+00
5.3047383e+00 3.3108965e+00 6.9492240e+00
5.4042441e+00 3.1816160e+00 6.8524210e+00
5.4989809e+00 3.0497042e+00 6.7536086e+00
5.4989809e+00 3.0497042e+00 6.7536086e+00
5.5849952e+00 2.9157646e+00 6.6481710e+00
5.6599142e+00 2.7811550e+00 6.5374939e+00
5.7237378e+00 2.6458753e+00 6.4215774e+00
5.7764659e+00 2.5099256e+00 6.3004213e+00
5.8180988e+00 2.3733059e+00 6.1740258e+00
5.8486362e+00 2.2360162e+00 6.0423908e+00
5.8486362e+00 2.2360162e+00 6.0423908e+00
5.8616239e+00 2.1003521e+00 5.9060787e+00
5.8640495e+00 1.9662171e+00 5.7692336e+00
5.8559128e+00 1.8336112e+00 5.6318556e+00
5.8372139e+00 1.7025345e+00 5.4939446e+00
5.8079529e+00 1.5729870e+00 5.3555006e+00
5.7681296e+00 1.4449686e+00 5.2165238e+00
5.7681296e+00 1.4449686e+00 5.2165238e+00
5.7227091e+00 1.3207881e+00 5.0757828e+00
5.6731689e+00 1.1984662e+00 4.9350426e+00
5.6195090e+00 1.0780029e+00 4.7943031e+00
5.5617295e+00 9.5939827e-01 4.6535644e+00
5.4998303e+00 8.4265226e-01 4.5128264e+00
5.4338114e+00 7.2776486e-01 4.3720891e+00
5.4338114e+00 7.2776486e-01 4.3720891e+00
5.3662471e+00 6.0833794e-01 4.2359312e+00
5.2977508e+00 4.8873811e-01 4.1003119e+00
5.2283225e+00 3.6896536e-01 3.9652313e+00
5.1579621e+00 2.4901970e-01 3.8306892e+00
5.0866698e+00 1.2890114e-01 3.6966858e+00
5.0144454e+00 8.6096600e-03 3.5632211e+00
2.7394600e+00 6.2495644e+00 1.3828610e+01
2.8201475e+00 6.3600797e+00 1.3687629e+01
2.9123811e+00 6.4681993e+00 1.3556025e+01
3.0161611e+00 6.5739232e+00 1.3433798e+01
3.1314872e+00 6.6772515e+00 1.3320948e+01
3.2583596e+00 6.7781840e+00 1.3217475e+01
3.3967782e+00 6.8767209e+00 1.3123379e+01
3.3967782e+00 6.8767209e+00 1.3123379e+01
3.5650952e+00 6.9564960e+00 1.3067881e+01
3.7387458e+00 7.0252282e+00 1.3024448e+01
3.9177300e+00 7.0829174e+00 1.2993079e+01
4.1020477e+00 7.1295637e+00 1.2973775e+01
4.2916991e+00 7.1651670e+00 1.2966536e+01
4.4866840e+00 7.1897274e+00 1.2971361e+01
4.4866840e+00 7.1897274e+00 1.2971361e+01
4.6822846e+00 7.2061151e+00 1.2976846e+01
4.8738215e+00 7.2234476e+00 1.2965044e+01
5.0612948e+00 7.2417249e+00 1.2935955e+01
5.2447043e+00 7.2609471e+00 1.2889580e+01
5.4240502e+00 7.2811140e+00 1.2825918e+01
5.5993325e+00 7.3022258e+00 1.2744970e+01
5.5993325e+00 7.3022258e+00 1.2744970e+01
5.7478471e+00 7.3312145e+00 1.2622321e+01
5.8850118e+00 7.3570228e+00 1.2489578e+01
6.0108267e+00 7.3796509e+00 1.2346742e+01
6.1252917e+00 7.3990987e+00 1.2193813e+01
[...]
POINT_DATA 4361
VECTORS U float
3.0232700e+00 9.6560500e-01 -9.5850800e-03
3.0456767e+00 9.4275000e-01 2.7321000e-03
3.0666000e+00 9.1779433e-01 1.3207993e-02
3.0860400e+00 8.9073800e-01 2.1842600e-02
3.1039967e+00 8.6158100e-01 2.8635920e-02
3.1204700e+00 8.3032333e-01 3.3587953e-02
3.1354600e+00 7.9696500e-01 3.6698700e-02
3.1354600e+00 7.9696500e-01 3.6698700e-02
3.1469300e+00 7.7284378e-01 3.9347781e-02
3.1567300e+00 7.4720444e-01 3.8793614e-02
3.1648600e+00 7.2004700e-01 3.5036200e-02
3.1713200e+00 6.9137144e-01 2.8075538e-02
3.1761100e+00 6.6117778e-01 1.7911628e-02
3.1792300e+00 6.2946600e-01 4.5444700e-03
3.1792300e+00 6.2946600e-01 4.5444700e-03
3.1876544e+00 5.9217000e-01 -2.7352222e-03
3.1951411e+00 5.5717033e-01 -5.9365889e-03
3.2016900e+00 5.2446700e-01 -5.0596300e-03
3.2073011e+00 4.9406000e-01 -1.0434556e-04
3.2119744e+00 4.6594933e-01 8.9292644e-03
3.2157100e+00 4.4013500e-01 2.2041200e-02
3.2157100e+00 4.4013500e-01 2.2041200e-02
3.2186111e+00 4.1501100e-01 2.4886189e-02
3.2210744e+00 3.9163833e-01 2.7265956e-02
3.2231000e+00 3.7001700e-01 2.9180500e-02
3.2246878e+00 3.5014700e-01 3.0629822e-02
3.2258378e+00 3.3202833e-01 3.1613922e-02
3.2265500e+00 3.1566100e-01 3.2132800e-02
3.2265500e+00 3.1566100e-01 3.2132800e-02
3.2264167e+00 3.0004378e-01 3.5352567e-02
3.2262567e+00 2.8552311e-01 3.7933800e-02
3.2260700e+00 2.7209900e-01 3.9876500e-02
3.2258567e+00 2.5977144e-01 4.1180667e-02
3.2256167e+00 2.4854044e-01 4.1846300e-02
3.2253500e+00 2.3840600e-01 4.1873400e-02
3.2253500e+00 2.3840600e-01 4.1873400e-02
3.2249578e+00 2.2834200e-01 4.2245767e-02
3.2241078e+00 2.1963733e-01 4.1050800e-02
3.2228000e+00 2.1229200e-01 3.8288500e-02
3.2210344e+00 2.0630600e-01 3.3958867e-02
3.2188111e+00 2.0167933e-01 2.8061900e-02
3.2161300e+00 1.9841200e-01 2.0597600e-02
3.2161300e+00 1.9841200e-01 2.0597600e-02
3.2131322e+00 1.9661900e-01 1.3635100e-02
3.2083989e+00 1.9893933e-01 5.6135400e-03
3.2019300e+00 2.0537300e-01 -3.4670800e-03
3.1937256e+00 2.1592000e-01 -1.3606760e-02
3.1837856e+00 2.3058033e-01 -2.4805500e-02
3.1721100e+00 2.4935400e-01 -3.7063300e-02
3.1721100e+00 2.4935400e-01 -3.7063300e-02
3.1522056e+00 2.9576789e-01 -5.2078000e-02
3.1343522e+00 3.3846389e-01 -6.5957400e-02
3.1185500e+00 3.7744200e-01 -7.8701500e-02
3.1047989e+00 4.1270222e-01 -9.0310300e-02
3.0930989e+00 4.4424456e-01 -1.0078380e-01
3.0834500e+00 4.7206900e-01 -1.1012200e-01
3.0834500e+00 4.7206900e-01 -1.1012200e-01
3.0674633e+00 4.5845267e-01 -9.6132644e-02
3.0498267e+00 4.4109200e-01 -7.7830478e-02
3.0305400e+00 4.1998700e-01 -5.5215500e-02
3.0096033e+00 3.9513767e-01 -2.8287711e-02
2.9870167e+00 3.6654400e-01 2.9528889e-03
2.9627800e+00 3.3420600e-01 3.8506300e-02
2.9627800e+00 3.3420600e-01 3.8506300e-02
2.9347267e+00 3.2491111e-01 6.0666500e-02
2.9052567e+00 3.1556478e-01 8.2833067e-02
2.8743700e+00 3.0616700e-01 1.0500600e-01
2.8420667e+00 2.9671778e-01 1.2718530e-01
2.8083467e+00 2.8721711e-01 1.4937097e-01
2.7732100e+00 2.7766500e-01 1.7156300e-01
2.7732100e+00 2.7766500e-01 1.7156300e-01
2.7361211e+00 2.7461811e-01 1.8918511e-01
2.6969044e+00 2.7125178e-01 2.0550044e-01
2.6555600e+00 2.6756600e-01 2.2050900e-01
2.6120878e+00 2.6356078e-01 2.3421078e-01
2.5664878e+00 2.5923611e-01 2.4660578e-01
2.5187600e+00 2.5459200e-01 2.5769400e-01
2.5187600e+00 2.5459200e-01 2.5769400e-01
2.4733400e+00 2.4929189e-01 2.6625778e-01
2.4261900e+00 2.4342322e-01 2.7214578e-01
2.3773100e+00 2.3698600e-01 2.7535800e-01
2.3267000e+00 2.2998022e-01 2.7589444e-01
2.2743600e+00 2.2240589e-01 2.7375511e-01
2.2202900e+00 2.1426300e-01 2.6894000e-01
2.2202900e+00 2.1426300e-01 2.6894000e-01
2.1670456e+00 2.0468444e-01 2.6186522e-01
2.1152022e+00 1.9360144e-01 2.5434722e-01
2.0647600e+00 1.8101400e-01 2.4638600e-01
2.0157189e+00 1.6692211e-01 2.3798156e-01
1.9680789e+00 1.5132578e-01 2.2913389e-01
1.9218400e+00 1.3422500e-01 2.1984300e-01
1.9218400e+00 1.3422500e-01 2.1984300e-01
1.8747567e+00 1.1638738e-01 2.1004033e-01
1.8277633e+00 9.8912011e-02 1.9937167e-01
1.7808600e+00 8.1798900e-02 1.8783700e-01
1.7340467e+00 6.5048044e-02 1.7543633e-01
1.6873233e+00 4.8659444e-02 1.6216967e-01
1.6406900e+00 3.2633100e-02 1.4803700e-01
1.6406900e+00 3.2633100e-02 1.4803700e-01
1.5927078e+00 1.6842856e-02 1.3356404e-01
1.5428144e+00 3.1962222e-04 1.1954338e-01
1.4910100e+00 -1.6936600e-02 1.0597500e-01
1.4372944e+00 -3.4925811e-02 9.2858911e-02
1.3816678e+00 -5.3648011e-02 8.0195111e-02
1.3241300e+00 -7.3103200e-02 6.7983600e-02
1.3241300e+00 -7.3103200e-02 6.7983600e-02
1.2650069e+00 -9.2535889e-02 5.7323816e-02
1.2044936e+00 -1.0969716e-01 4.7029382e-02
1.1425900e+00 -1.2458700e-01 3.7100300e-02
1.0792962e+00 -1.3720542e-01 2.7536569e-02
1.0146122e+00 -1.4755242e-01 1.8338189e-02
9.4853800e-01 -1.5562800e-01 9.5051600e-03
9.4853800e-01 -1.5562800e-01 9.5051600e-03
8.8242411e-01 -1.6188333e-01 3.2131222e-03
8.1806478e-01 -1.6577333e-01 -1.5073078e-03
7.5546000e-01 -1.6729800e-01 -4.6561300e-03
6.9460978e-01 -1.6645733e-01 -6.2333444e-03
6.3551411e-01 -1.6325133e-01 -6.2389511e-03
5.7817300e-01 -1.5768000e-01 -4.6729500e-03
5.7817300e-01 -1.5768000e-01 -4.6729500e-03
5.2583244e-01 -1.4715872e-01 -5.7700889e-03
4.7725611e-01 -1.3604772e-01 -6.7232289e-03
4.3244400e-01 -1.2434700e-01 -7.5323700e-03
3.9139611e-01 -1.1205656e-01 -8.1975122e-03
3.5411244e-01 -9.9176389e-02 -8.7186556e-03
3.2059300e-01 -8.5706500e-02 -9.0958000e-03
3.2059300e-01 -8.5706500e-02 -9.0958000e-03
2.8484344e-01 -7.1787984e-02 -7.1155522e-03
2.5122244e-01 -5.8332218e-02 -4.8972556e-03
2.1973000e-01 -4.5339200e-02 -2.4409100e-03
1.9036611e-01 -3.2808931e-02 2.5348444e-04
1.6313078e-01 -2.0741411e-02 3.1859278e-03
1.3802400e-01 -9.1366400e-03 6.3564200e-03
1.3802400e-01 -9.1366400e-03 6.3564200e-03
1.1682637e-01 -2.0388222e-03 8.5109111e-03
9.6654500e-02 4.8416911e-03 1.0688704e-02
7.7508400e-02 1.1504900e-02 1.2889800e-02
5.9388067e-02 1.7950804e-02 1.5114198e-02
4.2293500e-02 2.4179404e-02 1.7361898e-02
2.6224700e-02 3.0190700e-02 1.9632900e-02
2.7423900e+00 1.2267400e+00 1.0792300e-01
2.7192322e+00 1.2125211e+00 1.1665844e-01
2.6925656e+00 1.1930444e+00 1.2794078e-01
2.6623900e+00 1.1683100e+00 1.4177000e-01
2.6287056e+00 1.1383178e+00 1.5814611e-01
2.5915122e+00 1.1030678e+00 1.7706911e-01
2.5508100e+00 1.0625600e+00 1.9853900e-01
2.5508100e+00 1.0625600e+00 1.9853900e-01
2.5186522e+00 1.0418359e+00 2.0981811e-01
2.4843089e+00 1.0207899e+00 2.2014644e-01
2.4477800e+00 9.9942200e-01 2.2952400e-01
2.4090656e+00 9.7773222e-01 2.3795078e-01
2.3681656e+00 9.5572056e-01 2.4542678e-01
2.3250800e+00 9.3338700e-01 2.5195200e-01
2.3250800e+00 9.3338700e-01 2.5195200e-01
2.2781556e+00 9.0897933e-01 2.5710900e-01
2.2271989e+00 8.8323533e-01 2.5914100e-01
2.1722100e+00 8.5615500e-01 2.5804800e-01
2.1131889e+00 8.2773833e-01 2.5383000e-01
2.0501356e+00 7.9798533e-01 2.4648700e-01
1.9830500e+00 7.6689600e-01 2.3601900e-01
1.9830500e+00 7.6689600e-01 2.3601900e-01
1.9246467e+00 7.3005878e-01 2.2379111e-01
1.8726600e+00 6.9205711e-01 2.1517478e-01
1.8270900e+00 6.5289100e-01 2.1017000e-01
1.7879367e+00 6.1256044e-01 2.0877678e-01
1.7552000e+00 5.7106544e-01 2.1099511e-01
1.7288800e+00 5.2840600e-01 2.1682500e-01
1.7288800e+00 5.2840600e-01 2.1682500e-01
1.6975389e+00 4.8803911e-01 2.1823378e-01
1.6652156e+00 4.4872078e-01 2.1748078e-01
1.6319100e+00 4.1045100e-01 2.1456600e-01
1.5976222e+00 3.7322978e-01 2.0948944e-01
1.5623522e+00 3.3705711e-01 2.0225111e-01
1.5261000e+00 3.0193300e-01 1.9285100e-01
1.5261000e+00 3.0193300e-01 1.9285100e-01
1.4918233e+00 2.6587811e-01 1.8660989e-01
1.4549900e+00 2.3008678e-01 1.7911356e-01
1.4156000e+00 1.9455900e-01 1.7036200e-01
1.3736533e+00 1.5929478e-01 1.6035522e-01
1.3291500e+00 1.2429411e-01 1.4909322e-01
1.2820900e+00 8.9557000e-02 1.3657600e-01
1.2820900e+00 8.9557000e-02 1.3657600e-01
1.2298576e+00 5.6752183e-02 1.2031243e-01
1.1739542e+00 2.7296220e-02 1.0314733e-01
1.1143800e+00 1.1891100e-03 8.5080700e-02
1.0511349e+00 -2.1569147e-02 6.6112533e-02
9.8421889e-01 -4.0978550e-02 4.6242833e-02
9.1363200e-01 -5.7039100e-02 2.5471600e-02
9.1363200e-01 -5.7039100e-02 2.5471600e-02
8.3791300e-01 -6.6859078e-02 6.7411889e-03
7.6419333e-01 -7.3592678e-02 -8.4548778e-03
6.9247300e-01 -7.7239900e-02 -2.0116600e-02
6.2275200e-01 -7.7800744e-02 -2.8243978e-02
5.5503033e-01 -7.5275211e-02 -3.2837011e-02
4.8930800e-01 -6.9663300e-02 -3.3895700e-02
4.8930800e-01 -6.9663300e-02 -3.3895700e-02
4.3108211e-01 -6.1603433e-02 -3.5015156e-02
3.7686011e-01 -5.2877867e-02 -3.5424989e-02
3.2664200e-01 -4.3486600e-02 -3.5125200e-02
2.8042778e-01 -3.3429633e-02 -3.4115789e-02
2.3821744e-01 -2.2706967e-02 -3.2396756e-02
2.0001100e-01 -1.1318600e-02 -2.9968100e-02
2.0001100e-01 -1.1318600e-02 -2.9968100e-02
1.6466888e-01 -6.0081622e-03 -2.3387222e-02
1.3068591e-01 -1.4933489e-03 -1.6329116e-02
9.8062100e-02 2.2258400e-03 -8.7937800e-03
6.6797449e-02 5.1494044e-03 -7.8121556e-04
3.6891956e-02 7.2773444e-03 7.7085778e-03
8.3456200e-03 8.6096600e-03 1.6675600e-02
2.7394600e+00 1.2798600e+00 -9.1173100e-02
2.7694500e+00 1.2873011e+00 -7.2767053e-02
2.7976233e+00 1.2909111e+00 -5.5127287e-02
2.8239800e+00 1.2906900e+00 -3.8253800e-02
2.8485200e+00 1.2866378e+00 -2.2146593e-02
2.8712433e+00 1.2787544e+00 -6.8056667e-03
2.8921500e+00 1.2670400e+00 7.7689800e-03
2.8921500e+00 1.2670400e+00 7.7689800e-03
2.9086733e+00 1.2423511e+00 1.6331678e-02
2.9234433e+00 1.2154078e+00 2.0879818e-02
2.9364600e+00 1.1862100e+00 2.1413400e-02
2.9477233e+00 1.1547578e+00 1.7932424e-02
2.9572333e+00 1.1210511e+00 1.0436891e-02
2.9649900e+00 1.0850900e+00 -1.0732000e-03
2.9649900e+00 1.0850900e+00 -1.0732000e-03
2.9718089e+00 1.0457156e+00 -1.0957056e-02
2.9771956e+00 1.0121482e+00 -1.9274422e-02
2.9811500e+00 9.8438800e-01 -2.6025300e-02
2.9836722e+00 9.6243489e-01 -3.1209689e-02
2.9847622e+00 9.4628889e-01 -3.4827589e-02
2.9844200e+00 9.3595000e-01 -3.6879000e-02
2.9844200e+00 9.3595000e-01 -3.6879000e-02
2.9870922e+00 9.4148667e-01 -3.3219713e-02
2.9912856e+00 9.4678567e-01 -2.9204547e-02
2.9970000e+00 9.5184700e-01 -2.4833500e-02
3.0042356e+00 9.5667067e-01 -2.0106573e-02
3.0129922e+00 9.6125667e-01 -1.5023767e-02
3.0232700e+00 9.6560500e-01 -9.5850800e-03
2.6887100e+00 1.2574100e+00 1.0896300e-02
2.7014678e+00 1.2589233e+00 3.6365222e-02
2.7127011e+00 1.2577867e+00 5.8115022e-02
2.7224100e+00 1.2540000e+00 7.6145700e-02
2.7305944e+00 1.2475633e+00 9.0457256e-02
2.7372544e+00 1.2384767e+00 1.0104969e-01
2.7423900e+00 1.2267400e+00 1.0792300e-01
3.0834500e+00 4.7206900e-01 -1.1012200e-01
3.0446844e+00 4.2136433e-01 -1.0596752e-01
3.0040078e+00 3.7211233e-01 -9.9751856e-02
2.9614200e+00 3.2431300e-01 -9.1475000e-02
2.9169211e+00 2.7796633e-01 -8.1136956e-02
2.8705111e+00 2.3307233e-01 -6.8737722e-02
2.8221900e+00 1.8963100e-01 -5.4277300e-02
2.8221900e+00 1.8963100e-01 -5.4277300e-02
2.7939122e+00 1.6134917e-01 -4.5461133e-02
2.7634222e+00 1.3625317e-01 -3.4266833e-02
2.7307200e+00 1.1434300e-01 -2.0694400e-02
2.6958056e+00 9.5618667e-02 -4.7438333e-03
2.6586789e+00 8.0080167e-02 1.3584867e-02
2.6193400e+00 6.7727500e-02 3.4291700e-02
2.6193400e+00 6.7727500e-02 3.4291700e-02
2.5738389e+00 5.4113494e-02 5.3255833e-02
2.5277022e+00 4.1848794e-02 6.9792200e-02
2.4809300e+00 3.0933400e-02 8.3900800e-02
2.4335222e+00 2.1367311e-02 9.5581633e-02
2.3854789e+00 1.3150528e-02 1.0483470e-01
2.3368000e+00 6.2830500e-03 1.1166000e-01
2.3368000e+00 6.2830500e-03 1.1166000e-01
2.2801156e+00 3.3032222e-04 1.1396318e-01
2.2233889e+00 -4.6687378e-03 1.1355151e-01
2.1666200e+00 -8.7141300e-03 1.1042500e-01
2.1098089e+00 -1.1805854e-02 1.0458364e-01
2.0529556e+00 -1.3943911e-02 9.6027444e-02
1.9960600e+00 -1.5128300e-02 8.4756400e-02
1.9960600e+00 -1.5128300e-02 8.4756400e-02
1.9470389e+00 -1.2907550e-02 7.6103389e-02
1.8993322e+00 -9.6688733e-03 6.7138822e-02
1.8529400e+00 -5.4122700e-03 5.7862700e-02
1.8078622e+00 -1.3774000e-04 4.8275022e-02
1.7640989e+00 6.1547167e-03 3.8375789e-02
1.7216500e+00 1.3465100e-02 2.8165000e-02
1.7216500e+00 1.3465100e-02 2.8165000e-02
1.6788522e+00 1.9256844e-02 1.6201239e-02
1.6358222e+00 2.5614244e-02 4.1772689e-03
1.5925600e+00 3.2537300e-02 -7.9069100e-03
1.5490656e+00 4.0026011e-02 -2.0051298e-02
1.5053389e+00 4.8080378e-02 -3.2255894e-02
1.4613800e+00 5.6700400e-02 -4.4520700e-02
1.4613800e+00 5.6700400e-02 -4.4520700e-02
1.4200511e+00 6.3757833e-02 -5.5854733e-02
1.3763678e+00 7.2218067e-02 -6.5975367e-02
1.3303300e+00 8.2081100e-02 -7.4882600e-02
1.2819378e+00 9.3346933e-02 -8.2576433e-02
1.2311911e+00 1.0601557e-01 -8.9056867e-02
1.1780900e+00 1.2008700e-01 -9.4323900e-02
1.1780900e+00 1.2008700e-01 -9.4323900e-02
1.1189338e+00 1.3771044e-01 -9.7901500e-02
1.0597204e+00 1.5237644e-01 -1.0033053e-01
1.0004500e+00 1.6408500e-01 -1.0161100e-01
9.4112244e-01 1.7283611e-01 -1.0174290e-01
8.8173778e-01 1.7862978e-01 -1.0072623e-01
8.2229600e-01 1.8146600e-01 -9.8561000e-02
8.2229600e-01 1.8146600e-01 -9.8561000e-02
7.5757500e-01 1.8125667e-01 -9.5581667e-02
6.9550900e-01 1.7887833e-01 -9.0424800e-02
6.3609800e-01 1.7433100e-01 -8.3090400e-02
5.7934200e-01 1.6761467e-01 -7.3578467e-02
5.2524100e-01 1.5872933e-01 -6.1889000e-02
4.7379500e-01 1.4767500e-01 -4.8022000e-02
4.7379500e-01 1.4767500e-01 -4.8022000e-02
4.1799000e-01 1.3822148e-01 -2.3462322e-02
3.6467000e-01 1.2738848e-01 -7.4708889e-04
3.1383500e-01 1.1517600e-01 2.0123700e-02
2.6548500e-01 1.0158404e-01 3.9150044e-02
2.1962000e-01 8.6612611e-02 5.6331944e-02
1.7624000e-01 7.0261700e-02 7.1669400e-02
1.7624000e-01 7.0261700e-02 7.1669400e-02
1.5446171e-01 5.9625078e-02 6.1292714e-02
1.3108438e-01 4.7104511e-02 5.0228347e-02
1.0610800e-01 3.2700000e-02 3.8476300e-02
7.9532578e-02 1.6411544e-02 2.6036573e-02
5.1358111e-02 -1.7608556e-03 1.2909165e-02
2.1584600e-02 -2.1817200e-02 -9.0592300e-04
9.4067200e+00 5.8569800e-01 1.4196900e-01
9.3849478e+00 5.3431178e-01 1.5678356e-01
9.3620644e+00 4.8505944e-01 1.7122556e-01
9.3380700e+00 4.3794100e-01 1.8529500e-01
9.3129644e+00 3.9295644e-01 1.9899189e-01
9.2867478e+00 3.5010578e-01 2.1231622e-01
9.2594200e+00 3.0938900e-01 2.2526800e-01
9.2594200e+00 3.0938900e-01 2.2526800e-01
9.2343844e+00 2.8020611e-01 2.3565300e-01
9.2080678e+00 2.5852611e-01 2.4492100e-01
9.1804700e+00 2.4434900e-01 2.5307200e-01
9.1515911e+00 2.3767478e-01 2.6010600e-01
9.1214311e+00 2.3850344e-01 2.6602300e-01
9.0899900e+00 2.4683500e-01 2.7082300e-01
9.0899900e+00 2.4683500e-01 2.7082300e-01
9.0604856e+00 2.5344478e-01 2.7327578e-01
9.0289356e+00 2.6125411e-01 2.7579044e-01
8.9953400e+00 2.7026300e-01 2.7836700e-01
8.9596989e+00 2.8047144e-01 2.8100544e-01
8.9220122e+00 2.9187944e-01 2.8370578e-01
8.8822800e+00 3.0448700e-01 2.8646800e-01
8.8822800e+00 3.0448700e-01 2.8646800e-01
8.8286878e+00 3.2133233e-01 2.9363500e-01
8.7771611e+00 3.2989767e-01 3.0055667e-01
8.7277000e+00 3.3018300e-01 3.0723300e-01
8.6803044e+00 3.2218833e-01 3.1366400e-01
8.6349744e+00 3.0591367e-01 3.1984967e-01
8.5917100e+00 2.8135900e-01 3.2579000e-01
8.5917100e+00 2.8135900e-01 3.2579000e-01
8.5566233e+00 2.5208159e-01 3.2340989e-01
8.5233533e+00 2.2236159e-01 3.1811789e-01
8.4919000e+00 1.9219900e-01 3.0991400e-01
8.4622633e+00 1.6159382e-01 2.9879822e-01
8.4344433e+00 1.3054606e-01 2.8477056e-01
8.4084400e+00 9.9055700e-02 2.6783100e-01
8.4084400e+00 9.9055700e-02 2.6783100e-01
8.3757711e+00 1.3213883e-01 2.7114078e-01
8.3396978e+00 1.6350060e-01 2.7294444e-01
8.3002200e+00 1.9314100e-01 2.7324200e-01
8.2573378e+00 2.2106003e-01 2.7203344e-01
8.2110511e+00 2.4725770e-01 2.6931878e-01
8.1613600e+00 2.7173400e-01 2.6509800e-01
8.1613600e+00 2.7173400e-01 2.6509800e-01
8.1116300e+00 2.8912800e-01 2.5266478e-01
8.0640467e+00 2.9977733e-01 2.3780411e-01
8.0186100e+00 3.0368200e-01 2.2051600e-01
7.9753200e+00 3.0084200e-01 2.0080044e-01
7.9341767e+00 2.9125733e-01 1.7865744e-01
7.8951800e+00 2.7492800e-01 1.5408700e-01
7.8951800e+00 2.7492800e-01 1.5408700e-01
7.8586911e+00 2.4978567e-01 1.3657372e-01
7.8196111e+00 2.2439267e-01 1.1815576e-01
7.7779400e+00 1.9874900e-01 9.8833100e-02
7.7336778e+00 1.7285467e-01 7.8605756e-02
7.6868244e+00 1.4670967e-01 5.7473722e-02
7.6373800e+00 1.2031400e-01 3.5437000e-02
7.6373800e+00 1.2031400e-01 3.5437000e-02
7.5787167e+00 9.7750422e-02 9.1198889e-03
7.5172267e+00 8.2693222e-02 -1.4222011e-02
7.4529100e+00 7.5142400e-02 -3.4588700e-02
7.3857667e+00 7.5097956e-02 -5.1980178e-02
7.3157967e+00 8.2559889e-02 -6.6396444e-02
7.2430000e+00 9.7528200e-02 -7.7837500e-02
7.2430000e+00 9.7528200e-02 -7.7837500e-02
7.1741544e+00 1.2445756e-01 -8.0597322e-02
7.1113144e+00 1.5086249e-01 -8.2626856e-02
7.0544800e+00 1.7674300e-01 -8.3926100e-02
7.0036511e+00 2.0209909e-01 -8.4495056e-02
6.9588278e+00 2.2693076e-01 -8.4333722e-02
6.9200100e+00 2.5123800e-01 -8.3442100e-02
7.0654100e+00 3.1577200e-01 -1.2909300e-01
7.0495600e+00 2.9881467e-01 -1.2410477e-01
7.0303567e+00 2.8433800e-01 -1.1806843e-01
7.0078000e+00 2.7234200e-01 -1.1098400e-01
6.9818900e+00 2.6282667e-01 -1.0285147e-01
6.9526267e+00 2.5579200e-01 -9.3670833e-02
6.9200100e+00 2.5123800e-01 -8.3442100e-02
8.9590500e+00 6.3270500e-01 1.6431500e-01
8.9292911e+00 6.1300378e-01 1.4603471e-01
8.8986711e+00 5.9262511e-01 1.2624104e-01
8.8671900e+00 5.7156900e-01 1.0493400e-01
8.8348478e+00 5.4983544e-01 8.2113578e-02
8.8016444e+00 5.2742444e-01 5.7779778e-02
8.7675800e+00 5.0433600e-01 3.1932600e-02
8.7675800e+00 5.0433600e-01 3.1932600e-02
8.7327467e+00 4.7383944e-01 4.6945222e-03
8.6988000e+00 4.4482178e-01 -1.5567844e-02
8.6657400e+00 4.1728300e-01 -2.8854500e-02
8.6335667e+00 3.9122311e-01 -3.5165444e-02
8.6022800e+00 3.6664211e-01 -3.4500678e-02
8.5718800e+00 3.4354000e-01 -2.6860200e-02
8.5718800e+00 3.4354000e-01 -2.6860200e-02
8.5293689e+00 3.3883833e-01 4.6662222e-03
8.4845556e+00 3.3683067e-01 3.5675489e-02
8.4374400e+00 3.3751700e-01 6.6167600e-02
8.3880222e+00 3.4089733e-01 9.6142556e-02
8.3363022e+00 3.4697167e-01 1.2560036e-01
8.2822800e+00 3.5574000e-01 1.5454100e-01
8.2822800e+00 3.5574000e-01 1.5454100e-01
8.2301056e+00 3.6427689e-01 1.8220878e-01
8.1752322e+00 3.6983122e-01 2.0855111e-01
8.1176600e+00 3.7240300e-01 2.3356800e-01
8.0573889e+00 3.7199222e-01 2.5725944e-01
7.9944189e+00 3.6859889e-01 2.7962544e-01
7.9287500e+00 3.6222300e-01 3.0066600e-01
7.9287500e+00 3.6222300e-01 3.0066600e-01
7.8547622e+00 3.3525522e-01 2.8276773e-01
7.7772422e+00 3.1550222e-01 2.5478207e-01
7.6961900e+00 3.0296400e-01 2.1670900e-01
7.6116056e+00 2.9764056e-01 1.6854853e-01
7.5234889e+00 2.9953189e-01 1.1030067e-01
7.4318400e+00 3.0863800e-01 4.1965400e-02
7.4318400e+00 3.0863800e-01 4.1965400e-02
7.3517100e+00 3.1827256e-01 -7.6934444e-03
7.2792033e+00 3.2452889e-01 -4.8892644e-02
7.2143200e+00 3.2740700e-01 -8.1632200e-02
7.1570600e+00 3.2690689e-01 -1.0591211e-01
7.1074233e+00 3.2302856e-01 -1.2173238e-01
7.0654100e+00 3.1577200e-01 -1.2909300e-01
5.2390400e+00 6.0737000e-01 -1.2039200e-01
5.2833422e+00 5.6804000e-01 -1.0956306e-01
5.3355889e+00 5.2954833e-01 -1.0217182e-01
5.3957800e+00 4.9189500e-01 -9.8218300e-02
5.4639156e+00 4.5508000e-01 -9.7702489e-02
5.5399956e+00 4.1910333e-01 -1.0062439e-01
5.6240200e+00 3.8396500e-01 -1.0698400e-01
5.6240200e+00 3.8396500e-01 -1.0698400e-01
5.7173433e+00 3.7258744e-01 -1.0684103e-01
5.8122533e+00 3.6979478e-01 -1.0474303e-01
5.9087500e+00 3.7558700e-01 -1.0069000e-01
6.0068333e+00 3.8996411e-01 -9.4681933e-02
6.1065033e+00 4.1292611e-01 -8.6718833e-02
6.2077600e+00 4.4447300e-01 -7.6800700e-02
6.2077600e+00 4.4447300e-01 -7.6800700e-02
6.3004344e+00 4.7806233e-01 -7.3731944e-02
6.3915011e+00 5.0344367e-01 -7.2248611e-02
6.4809600e+00 5.2061700e-01 -7.2350700e-02
6.5688111e+00 5.2958233e-01 -7.4038211e-02
6.6550544e+00 5.3033967e-01 -7.7311144e-02
6.7396900e+00 5.2288900e-01 -8.2169500e-02
6.7396900e+00 5.2288900e-01 -8.2169500e-02
6.8127100e+00 4.9200256e-01 -9.0534944e-02
6.8782367e+00 4.5966289e-01 -9.8682444e-02
6.9362700e+00 4.2587000e-01 -1.0661200e-01
6.9868100e+00 3.9062389e-01 -1.1432361e-01
7.0298567e+00 3.5392456e-01 -1.2181728e-01
7.0654100e+00 3.1577200e-01 -1.2909300e-01