# vtk DataFile Version 2.0
test
ASCII
DATASET POLYDATA
POINTS 4361 float
4.1986022e+00 6.7541895e+00 1.1860287e+01
4.3039150e+00 6.8190671e+00 1.1731514e+01
4.4114766e+00 6.8835587e+00 1.1604569e+01
4.5212870e+00 6.9476641e+00 1.1479449e+01
4.6333462e+00 7.0113833e+00 1.1356157e+01
4.7476541e+00 7.0747164e+00 1.1234691e+01
4.8642108e+00 7.1376634e+00 1.1115052e+01
4.8642108e+00 7.1376634e+00 1.1115052e+01
4.9854104e+00 7.2040766e+00 1.0999427e+01
5.1132476e+00 7.2693213e+00 1.0892972e+01
5.2477225e+00 7.3333975e+00 1.0795686e+01
5.3888349e+00 7.3963052e+00 1.0707570e+01
5.5365850e+00 7.4580444e+00 1.0628623e+01
5.6909726e+00 7.5186151e+00 1.0558846e+01
5.6909726e+00 7.5186151e+00 1.0558846e+01
5.8549319e+00 7.5751413e+00 1.0509219e+01
6.0211600e+00 7.6285812e+00 1.0473015e+01
6.1896570e+00 7.6789350e+00 1.0450234e+01
6.3604228e+00 7.7262027e+00 1.0440876e+01
6.5334575e+00 7.7703841e+00 1.0444941e+01
6.7087611e+00 7.8114794e+00 1.0462429e+01
6.7087611e+00 7.8114794e+00 1.0462429e+01
6.8824579e+00 7.8481667e+00 1.0485463e+01
7.0559556e+00 7.8821241e+00 1.0512297e+01
7.2292542e+00 7.9133517e+00 1.0542931e+01
7.4023537e+00 7.9418495e+00 1.0577365e+01
7.5752542e+00 7.9676174e+00 1.0615599e+01
7.7479556e+00 7.9906555e+00 1.0657633e+01
7.7479556e+00 7.9906555e+00 1.0657633e+01
7.9207988e+00 8.0114107e+00 1.0700157e+01
8.0945663e+00 8.0297580e+00 1.0738758e+01
8.2692582e+00 8.0456974e+00 1.0773435e+01
8.4448745e+00 8.0592288e+00 1.0804190e+01
8.6214152e+00 8.0703522e+00 1.0831021e+01
8.7988803e+00 8.0790677e+00 1.0853929e+01
8.7988803e+00 8.0790677e+00 1.0853929e+01
8.9791082e+00 8.0848488e+00 1.0867994e+01
9.1577045e+00 8.0881327e+00 1.0868375e+01
9.3346694e+00 8.0889193e+00 1.0855071e+01
9.5100027e+00 8.0872086e+00 1.0828083e+01
9.6837045e+00 8.0830007e+00 1.0787410e+01
9.8557748e+00 8.0762954e+00 1.0733053e+01
9.8557748e+00 8.0762954e+00 1.0733053e+01
1.0020589e+01 8.0669876e+00 1.0660291e+01
1.0177613e+01 8.0568755e+00 1.0576273e+01
1.0326847e+01 8.0459590e+00 1.0480999e+01
1.0468291e+01 8.0342383e+00 1.0374469e+01
1.0601946e+01 8.0217132e+00 1.0256682e+01
1.0727810e+01 8.0083837e+00 1.0127639e+01
1.0727810e+01 8.0083837e+00 1.0127639e+01
1.0843512e+01 8.0024634e+00 9.9912705e+00
1.0957111e+01 7.9953395e+00 9.8532976e+00
1.1068606e+01 7.9870119e+00 9.7137198e+00
1.1177997e+01 7.9774807e+00 9.5725374e+00
1.1285286e+01 7.9667458e+00 9.4297501e+00
1.1390471e+01 7.9548074e+00 9.2853581e+00
1.1390471e+01 7.9548074e+00 9.2853581e+00
1.1290399e+01 7.8873184e+00 9.1463889e+00
1.1191005e+01 7.8180523e+00 9.0078667e+00
1.1092289e+01 7.7470090e+00 8.8697915e+00
1.0994251e+01 7.6741886e+00 8.7321633e+00
1.0896891e+01 7.5995910e+00 8.5949822e+00
1.0800208e+01 7.5232162e+00 8.4582479e+00
1.0800208e+01 7.5232162e+00 8.4582479e+00
1.0705119e+01 7.4532720e+00 8.3167432e+00
1.0614323e+01 7.3821972e+00 8.1733691e+00
1.0527822e+01 7.3099917e+00 8.0281257e+00
1.0445614e+01 7.2366555e+00 7.8810130e+00
1.0367700e+01 7.1621887e+00 7.7320310e+00
1.0294079e+01 7.0865912e+00 7.5811798e+00
1.0294079e+01 7.0865912e+00 7.5811798e+00
1.0227528e+01 7.0096447e+00 7.4269697e+00
1.0169552e+01 6.9305715e+00 7.2714764e+00
1.0120154e+01 6.8493718e+00 7.1147001e+00
1.0079331e+01 6.7660453e+00 6.9566405e+00
1.0047085e+01 6.6805923e+00 6.7972979e+00
1.0023416e+01 6.5930126e+00 6.6366720e+00
1.0023416e+01 6.5930126e+00 6.6366720e+00
1.0011722e+01 6.5033029e+00 6.4758942e+00
1.0010483e+01 6.4122894e+00 6.3167934e+00
1.0019697e+01 6.3199722e+00 6.1593698e+00
1.0039365e+01 6.2263512e+00 6.0036233e+00
1.0069486e+01 6.1314265e+00 5.8495540e+00
1.0110062e+01 6.0351981e+00 5.6971617e+00
1.0110062e+01 6.0351981e+00 5.6971617e+00
1.0158914e+01 5.9384594e+00 5.5485631e+00
1.0213520e+01 5.8409482e+00 5.4031100e+00
1.0273881e+01 5.7426645e+00 5.2608026e+00
1.0339997e+01 5.6436082e+00 5.1216408e+00
1.0411867e+01 5.5437795e+00 4.9856246e+00
1.0489491e+01 5.4431783e+00 4.8527540e+00
1.0489491e+01 5.4431783e+00 4.8527540e+00
1.0570111e+01 5.3424148e+00 4.7223686e+00
1.0652305e+01 5.2406566e+00 4.5938530e+00
1.0736074e+01 5.1379036e+00 4.4672072e+00
1.0821417e+01 5.0341558e+00 4.3424313e+00
1.0908334e+01 4.9294133e+00 4.2195253e+00
1.0996825e+01 4.8236760e+00 4.0984890e+00
1.0996825e+01 4.8236760e+00 4.0984890e+00
1.1084814e+01 4.7158897e+00 3.9790170e+00
1.1170756e+01 4.6057750e+00 3.8602227e+00
1.1254651e+01 4.4933318e+00 3.7421061e+00
1.1336499e+01 4.3785600e+00 3.6246673e+00
1.1416300e+01 4.2614597e+00 3.5079063e+00
1.1494054e+01 4.1420310e+00 3.3918229e+00
1.1494054e+01 4.1420310e+00 3.3918229e+00
1.1567807e+01 4.0197477e+00 3.2755335e+00
1.1635083e+01 3.8945184e+00 3.1593285e+00
1.1695882e+01 3.7663430e+00 3.0432079e+00
1.1750202e+01 3.6352216e+00 2.9271716e+00
1.1798046e+01 3.5011542e+00 2.8112197e+00
1.1839412e+01 3.3641407e+00 2.6953522e+00
1.1839412e+01 3.3641407e+00 2.6953522e+00
1.1872661e+01 3.2232004e+00 2.5804975e+00
1.1895852e+01 3.0806977e+00 2.4668830e+00
1.1908986e+01 2.9366328e+00 2.3545088e+00
1.1912061e+01 2.7910055e+00 2.2433749e+00
1.1905079e+01 2.6438160e+00 2.1334813e+00
1.1888039e+01 2.4950642e+00 2.0248280e+00
1.1888039e+01 2.4950642e+00 2.0248280e+00
1.1859097e+01 2.3478623e+00 1.9169588e+00
1.1822038e+01 2.2016993e+00 1.8114146e+00
1.1776863e+01 2.0565752e+00 1.7081951e+00
1.1723571e+01 1.9124900e+00 1.6073006e+00
1.1662163e+01 1.7694437e+00 1.5087309e+00
1.1592638e+01 1.6274363e+00 1.4124861e+00
1.1592638e+01 1.6274363e+00 1.4124861e+00
1.1515806e+01 1.4877065e+00 1.3192826e+00
1.1435098e+01 1.3491687e+00 1.2280356e+00
1.1350513e+01 1.2118230e+00 1.1387450e+00
1.1262052e+01 1.0756694e+00 1.0514108e+00
1.1169714e+01 9.4070798e-01 9.6603302e-01
1.1073500e+01 8.0693861e-01 8.8261167e-01
1.1073500e+01 8.0693861e-01 8.8261167e-01
1.0976390e+01 6.7274430e-01 8.0082790e-01
1.0878433e+01 5.3885039e-01 7.1961271e-01
1.0779631e+01 4.0525689e-01 6.3896609e-01
1.0679981e+01 2.7196379e-01 5.5888803e-01
1.0579485e+01 1.3897109e-01 4.7937855e-01
1.0478143e+01 6.2787900e-03 4.0043764e-01
2.0147800e+00 5.6066361e+00 1.1700761e+01
1.9846704e+00 5.5665439e+00 1.1515538e+01
1.9557790e+00 5.5242044e+00 1.1330695e+01
1.9281058e+00 5.4796175e+00 1.1146232e+01
1.9016508e+00 5.4327834e+00 1.0962148e+01
1.8764139e+00 5.3837020e+00 1.0778444e+01
1.8523952e+00 5.3323733e+00 1.0595120e+01
1.8523952e+00 5.3323733e+00 1.0595120e+01
1.8351592e+00 5.2861908e+00 1.0409182e+01
1.8252176e+00 5.2379204e+00 1.0223923e+01
1.8225706e+00 5.1875621e+00 1.0039344e+01
1.8272181e+00 5.1351159e+00 9.8554450e+00
1.8391601e+00 5.0805818e+00 9.6722260e+00
1.8583966e+00 5.0239599e+00 9.4896869e+00
1.8583966e+00 5.0239599e+00 9.4896869e+00
1.8908698e+00 4.9629279e+00 9.3094538e+00
1.9340332e+00 4.8990276e+00 9.1342955e+00
1.9878866e+00 4.8322590e+00 8.9642120e+00
2.0524301e+00 4.7626219e+00 8.7992032e+00
2.1276636e+00 4.6901164e+00 8.6392692e+00
2.2135872e+00 4.6147425e+00 8.4844099e+00
2.2135872e+00 4.6147425e+00 8.4844099e+00
2.3123094e+00 4.5365400e+00 8.3390134e+00
2.4190632e+00 4.4569709e+00 8.2021140e+00
2.5338486e+00 4.3760353e+00 8.0737120e+00
2.6566656e+00 4.2937330e+00 7.9538071e+00
2.7875141e+00 4.2100642e+00 7.8423995e+00
2.9263943e+00 4.1250287e+00 7.7394891e+00
2.9263943e+00 4.1250287e+00 7.7394891e+00
3.0659289e+00 4.0398598e+00 7.6402970e+00
3.2064102e+00 3.9534113e+00 7.5438159e+00
3.3478382e+00 3.8656834e+00 7.4500459e+00
3.4902129e+00 3.7766759e+00 7.3589868e+00
3.6335344e+00 3.6863890e+00 7.2706388e+00
3.7778025e+00 3.5948226e+00 7.1850017e+00
3.7778025e+00 3.5948226e+00 7.1850017e+00
3.9227523e+00 3.5012992e+00 7.1022700e+00
4.0650289e+00 3.4051455e+00 7.0183078e+00
4.2046322e+00 3.3063616e+00 6.9331150e+00
4.3415624e+00 3.2049474e+00 6.8466917e+00
4.4758193e+00 3.1009029e+00 6.7590378e+00
4.6074029e+00 2.9942282e+00 6.6701534e+00
4.6074029e+00 2.9942282e+00 6.6701534e+00
4.7345516e+00 2.8842690e+00 6.5770242e+00
4.8530452e+00 2.7707601e+00 6.4791231e+00
4.9628838e+00 2.6537015e+00 6.3764501e+00
5.0640673e+00 2.5330932e+00 6.2690052e+00
5.1565958e+00 2.4089353e+00 6.1567885e+00
5.2404692e+00 2.2812276e+00 6.0398000e+00
5.2404692e+00 2.2812276e+00 6.0398000e+00
5.3084573e+00 2.1494732e+00 5.9159715e+00
5.3635368e+00 2.0174513e+00 5.7888629e+00
5.4057078e+00 1.8851619e+00 5.6584744e+00
5.4349703e+00 1.7526051e+00 5.5248059e+00
5.4513242e+00 1.6197807e+00 5.3878573e+00
5.4547696e+00 1.4866889e+00 5.2476287e+00
5.4547696e+00 1.4866889e+00 5.2476287e+00
5.4469540e+00 1.3571756e+00 5.1055564e+00
5.4321598e+00 1.2291942e+00 4.9633007e+00
5.4103870e+00 1.1027447e+00 4.8208618e+00
5.3816356e+00 9.7782721e-01 4.6782396e+00
5.3459056e+00 8.5444165e-01 4.5354341e+00
5.3031970e+00 7.3258802e-01 4.3924452e+00
5.3031970e+00 7.3258802e-01 4.3924452e+00
5.2578594e+00 6.1001269e-01 4.2516630e+00
5.2109430e+00 4.8773334e-01 4.1110676e+00
5.1624481e+00 3.6574996e-01 3.9706591e+00
5.1123744e+00 2.4406256e-01 3.8304375e+00
5.0607221e+00 1.2267113e-01 3.6904027e+00
5.0074912e+00 1.5756700e-03 3.5505547e+00
7.9657600e-01 5.3996034e+00 1.3905898e+01
8.5789412e-01 5.5047260e+00 1.3751843e+01
9.3203548e-01 5.6098563e+00 1.3607689e+01
1.0190001e+00 5.7149942e+00 1.3473437e+01
1.1187879e+00 5.8201398e+00 1.3349087e+01
1.2313990e+00 5.9252930e+00 1.3234638e+01
1.3568332e+00 6.0304539e+00 1.3130091e+01
1.3568332e+00 6.0304539e+00 1.3130091e+01
1.5154370e+00 6.1254037e+00 1.3068429e+01
1.6805903e+00 6.2106042e+00 1.3021488e+01
1.8522930e+00 6.2860554e+00 1.2989270e+01
2.0305452e+00 6.3517573e+00 1.2971775e+01
2.2153469e+00 6.4077100e+00 1.2969001e+01
2.4066980e+00 6.4539134e+00 1.2980949e+01
2.4066980e+00 6.4539134e+00 1.2980949e+01
2.5993137e+00 6.4943040e+00 1.2992501e+01
2.7884690e+00 6.5317382e+00 1.2985546e+01
2.9741638e+00 6.5662159e+00 1.2960083e+01
3.1563981e+00 6.5977373e+00 1.2916112e+01
3.3351720e+00 6.6263022e+00 1.2853634e+01
3.5104855e+00 6.6519108e+00 1.2772648e+01
3.5104855e+00 6.6519108e+00 1.2772648e+01
3.6556443e+00 6.6753860e+00 1.2645558e+01
3.7886140e+00 6.6962897e+00 1.2508481e+01
3.9093947e+00 6.7146219e+00 1.2361415e+01
4.0179863e+00 6.7303826e+00 1.2204360e+01
[...]
POINT_DATA 4361
VECTORS U float
9.0170000e-01 2.9134100e-01 -6.9703700e-03
9.1117722e-01 2.8472256e-01 -2.0489500e-03
9.2026789e-01 2.7739522e-01 2.3798867e-03
9.2897200e-01 2.6935900e-01 6.3161400e-03
9.3728956e-01 2.6061389e-01 9.7598100e-03
9.4522056e-01 2.5115989e-01 1.2710897e-02
9.5276500e-01 2.4099700e-01 1.5169400e-02
9.5276500e-01 2.4099700e-01 1.5169400e-02
9.5877478e-01 2.3310244e-01 1.7419511e-02
9.6423178e-01 2.2450711e-01 1.8713778e-02
9.6913600e-01 2.1521100e-01 1.9052200e-02
9.7348744e-01 2.0521411e-01 1.8434778e-02
9.7728611e-01 1.9451644e-01 1.6861511e-02
9.8053200e-01 1.8311800e-01 1.4332400e-02
9.8053200e-01 1.8311800e-01 1.4332400e-02
9.8485056e-01 1.7037556e-01 1.3407633e-02
9.8869156e-01 1.5840989e-01 1.3132833e-02
9.9205500e-01 1.4722100e-01 1.3508000e-02
9.9494089e-01 1.3680889e-01 1.4533133e-02
9.9734922e-01 1.2717356e-01 1.6208233e-02
9.9928000e-01 1.1831500e-01 1.8533300e-02
9.9928000e-01 1.1831500e-01 1.8533300e-02
1.0010278e+00 1.0965501e-01 1.8139522e-02
1.0025211e+00 1.0165718e-01 1.7870022e-02
1.0037600e+00 9.4321500e-02 1.7724800e-02
1.0047444e+00 8.7647978e-02 1.7703856e-02
1.0054744e+00 8.1636611e-02 1.7807189e-02
1.0059500e+00 7.6287400e-02 1.8034800e-02
1.0059500e+00 7.6287400e-02 1.8034800e-02
1.0061167e+00 7.1278300e-02 1.8913167e-02
1.0062067e+00 6.6617600e-02 1.9920400e-02
1.0062200e+00 6.2305300e-02 2.1056500e-02
1.0061567e+00 5.8341400e-02 2.2321467e-02
1.0060167e+00 5.4725900e-02 2.3715300e-02
1.0058000e+00 5.1458800e-02 2.5238000e-02
1.0058000e+00 5.1458800e-02 2.5238000e-02
1.0056400e+00 4.8114200e-02 2.6640367e-02
1.0054133e+00 4.5286133e-02 2.7552233e-02
1.0051200e+00 4.2974600e-02 2.7973600e-02
1.0047600e+00 4.1179600e-02 2.7904467e-02
1.0043333e+00 3.9901133e-02 2.7344833e-02
1.0038400e+00 3.9139200e-02 2.6294700e-02
1.0038400e+00 3.9139200e-02 2.6294700e-02
1.0035831e+00 3.8929933e-02 2.5744619e-02
1.0023664e+00 3.9545300e-02 2.4192086e-02
1.0001900e+00 4.0985300e-02 2.1637100e-02
9.9705378e-01 4.3249933e-02 1.8079662e-02
9.9295778e-01 4.6339200e-02 1.3519772e-02
9.8790200e-01 5.0253100e-02 7.9574300e-03
9.8790200e-01 5.0253100e-02 7.9574300e-03
9.7899278e-01 6.2009444e-02 -7.5459444e-04
9.7061944e-01 7.2861778e-02 -8.7535044e-03
9.6278200e-01 8.2810100e-02 -1.6039300e-02
9.5548044e-01 9.1854411e-02 -2.2611981e-02
9.4871478e-01 9.9994711e-02 -2.8471548e-02
9.4248500e-01 1.0723100e-01 -3.3618000e-02
9.4248500e-01 1.0723100e-01 -3.3618000e-02
9.3727500e-01 1.0338993e-01 -2.8347300e-02
9.3140033e-01 9.8286333e-02 -2.2020433e-02
9.2486100e-01 9.1920200e-02 -1.4637400e-02
9.1765700e-01 8.4291533e-02 -6.1982000e-03
9.0978833e-01 7.5400333e-02 3.2971667e-03
9.0125500e-01 6.5246600e-02 1.3848700e-02
9.0125500e-01 6.5246600e-02 1.3848700e-02
8.9179900e-01 6.2574422e-02 2.0965889e-02
8.8186833e-01 6.0330222e-02 2.7772622e-02
8.7146300e-01 5.8514000e-02 3.4268900e-02
8.6058300e-01 5.7125756e-02 4.0454722e-02
8.4922833e-01 5.6165489e-02 4.6330089e-02
8.3739900e-01 5.5633200e-02 5.1895000e-02
8.3739900e-01 5.5633200e-02 5.1895000e-02
8.2556456e-01 5.6037444e-02 5.6382400e-02
8.1300656e-01 5.6355144e-02 6.0335333e-02
7.9972500e-01 5.6586300e-02 6.3753800e-02
7.8571989e-01 5.6730911e-02 6.6637800e-02
7.7099122e-01 5.6788978e-02 6.8987333e-02
7.5553900e-01 5.6760500e-02 7.0802400e-02
7.5553900e-01 5.6760500e-02 7.0802400e-02
7.3968733e-01 5.6512433e-02 7.1725944e-02
7.2441033e-01 5.5938167e-02 7.1939711e-02
7.0970800e-01 5.5037700e-02 7.1443700e-02
6.9558033e-01 5.3811033e-02 7.0237911e-02
6.8202733e-01 5.2258167e-02 6.8322344e-02
6.6904900e-01 5.0379100e-02 6.5697000e-02
6.6904900e-01 5.0379100e-02 6.5697000e-02
6.5620333e-01 4.8092378e-02 6.2787956e-02
6.4374033e-01 4.5426344e-02 5.9847089e-02
6.3166000e-01 4.2381000e-02 5.6874400e-02
6.1996233e-01 3.8956344e-02 5.3869889e-02
6.0864733e-01 3.5152378e-02 5.0833556e-02
5.9771500e-01 3.0969100e-02 4.7765400e-02
5.9771500e-01 3.0969100e-02 4.7765400e-02
5.8691200e-01 2.7046067e-02 4.4372111e-02
5.7616933e-01 2.3136600e-02 4.0852844e-02
5.6548700e-01 1.9240700e-02 3.7207600e-02
5.5486500e-01 1.5358367e-02 3.3436378e-02
5.4430333e-01 1.1489600e-02 2.9539178e-02
5.3380200e-01 7.6344000e-03 2.5516000e-02
5.3380200e-01 7.6344000e-03 2.5516000e-02
5.2280233e-01 3.1767889e-03 2.1784741e-02
5.1127733e-01 -1.5054244e-03 1.7989774e-02
4.9922700e-01 -6.4122400e-03 1.4131100e-02
4.8665133e-01 -1.1543658e-02 1.0208718e-02
4.7355033e-01 -1.6899678e-02 6.2226278e-03
4.5992400e-01 -2.2480300e-02 2.1728300e-03
4.5992400e-01 -2.2480300e-02 2.1728300e-03
4.4517156e-01 -2.8082300e-02 -2.1361167e-03
4.2932256e-01 -3.3444000e-02 -6.3315267e-03
4.1237700e-01 -3.8565400e-02 -1.0413400e-02
3.9433489e-01 -4.3446500e-02 -1.4381737e-02
3.7519622e-01 -4.8087300e-02 -1.8236537e-02
3.5496100e-01 -5.2487800e-02 -2.1977800e-02
3.5496100e-01 -5.2487800e-02 -2.1977800e-02
3.3476256e-01 -5.6781322e-02 -2.4267067e-02
3.1439422e-01 -6.0173056e-02 -2.5956133e-02
2.9385600e-01 -6.2663000e-02 -2.7045000e-02
2.7314789e-01 -6.4251156e-02 -2.7533667e-02
2.5226989e-01 -6.4937522e-02 -2.7422133e-02
2.3122200e-01 -6.4722100e-02 -2.6710400e-02
2.3122200e-01 -6.4722100e-02 -2.6710400e-02
2.1065389e-01 -6.2014622e-02 -2.6983900e-02
1.9127322e-01 -5.8776756e-02 -2.7028267e-02
1.7308000e-01 -5.5008500e-02 -2.6843500e-02
1.5607422e-01 -5.0709856e-02 -2.6429600e-02
1.4025589e-01 -4.5880822e-02 -2.5786567e-02
1.2562500e-01 -4.0521400e-02 -2.4914400e-02
1.2562500e-01 -4.0521400e-02 -2.4914400e-02
1.1076133e-01 -3.4875393e-02 -2.3541256e-02
9.6790167e-02 -2.9397927e-02 -2.1944689e-02
8.3711500e-02 -2.4089000e-02 -2.0124700e-02
7.1525333e-02 -1.8948613e-02 -1.8081289e-02
6.0231667e-02 -1.3976767e-02 -1.5814456e-02
4.9830500e-02 -9.1734600e-03 -1.3324200e-02
4.9830500e-02 -9.1734600e-03 -1.3324200e-02
4.1049256e-02 -5.9933506e-03 -1.0403034e-02
3.2763922e-02 -3.0551349e-03 -7.4981344e-03
2.4974500e-02 -3.5881300e-04 -4.6095000e-03
1.7680989e-02 2.0956151e-03 -1.7371311e-03
1.0883389e-02 4.3081494e-03 1.1189722e-03
4.5817000e-03 6.2787900e-03 3.9588100e-03
7.9666000e-01 3.9512400e-01 5.6205600e-02
7.8913733e-01 3.9126300e-01 5.8503689e-02
7.8053267e-01 3.8574100e-01 6.1262156e-02
7.7084600e-01 3.7855800e-01 6.4481000e-02
7.6007733e-01 3.6971400e-01 6.8160222e-02
7.4822667e-01 3.5920900e-01 7.2299822e-02
7.3529400e-01 3.4704300e-01 7.6899800e-02
7.3529400e-01 3.4704300e-01 7.6899800e-02
7.2465178e-01 3.4122767e-01 7.9488478e-02
7.1334244e-01 3.3517300e-01 8.1702011e-02
7.0136600e-01 3.2887900e-01 8.3540400e-02
6.8872244e-01 3.2234567e-01 8.5003644e-02
6.7541178e-01 3.1557300e-01 8.6091744e-02
6.6143400e-01 3.0856100e-01 8.6804700e-02
6.6143400e-01 3.0856100e-01 8.6804700e-02
6.4794756e-01 2.9993922e-01 8.7375789e-02
6.3351589e-01 2.9064189e-01 8.6974222e-02
6.1813900e-01 2.8066900e-01 8.5600000e-02
6.0181689e-01 2.7002056e-01 8.3253122e-02
5.8454956e-01 2.5869656e-01 7.9933589e-02
5.6633700e-01 2.4669700e-01 7.5641400e-02
5.6633700e-01 2.4669700e-01 7.5641400e-02
5.5002989e-01 2.3342611e-01 7.0834922e-02
5.3564322e-01 2.2008711e-01 6.7380056e-02
5.2317700e-01 2.0668000e-01 6.5276800e-02
5.1263122e-01 1.9320478e-01 6.4525156e-02
5.0400589e-01 1.7966144e-01 6.5125122e-02
4.9730100e-01 1.6605000e-01 6.7076700e-02
4.9730100e-01 1.6605000e-01 6.7076700e-02
4.8892344e-01 1.5329611e-01 6.7253311e-02
4.8040211e-01 1.4091044e-01 6.6988211e-02
4.7173700e-01 1.2889300e-01 6.6281400e-02
4.6292811e-01 1.1724378e-01 6.5132878e-02
4.5397544e-01 1.0596278e-01 6.3542644e-02
4.4487900e-01 9.5050000e-02 6.1510700e-02
4.4487900e-01 9.5050000e-02 6.1510700e-02
4.3696978e-01 8.4227056e-02 6.1303300e-02
4.2859978e-01 7.3668689e-02 6.0619533e-02
4.1976900e-01 6.3374900e-02 5.9459400e-02
4.1047744e-01 5.3345689e-02 5.7822900e-02
4.0072511e-01 4.3581056e-02 5.5710033e-02
3.9051200e-01 3.4081000e-02 5.3120800e-02
3.9051200e-01 3.4081000e-02 5.3120800e-02
3.7941389e-01 2.5256594e-02 4.9165578e-02
3.6708522e-01 1.6901371e-02 4.4776444e-02
3.5352600e-01 9.0153300e-03 3.9953400e-02
3.3873622e-01 1.5984711e-03 3.4696444e-02
3.2271589e-01 -5.3492056e-03 2.9005578e-02
3.0546500e-01 -1.1827700e-02 2.2880800e-02
3.0546500e-01 -1.1827700e-02 2.2880800e-02
2.8474633e-01 -1.7737944e-02 1.6634000e-02
2.6368067e-01 -2.2358444e-02 1.1174483e-02
2.4226800e-01 -2.5689200e-02 6.5022500e-03
2.2050833e-01 -2.7730211e-02 2.6173000e-03
1.9840167e-01 -2.8481478e-02 -4.8036667e-04
1.7594800e-01 -2.7943000e-02 -2.7907500e-03
1.7594800e-01 -2.7943000e-02 -2.7907500e-03
1.5532704e-01 -2.5215951e-02 -5.2415911e-03
1.3585104e-01 -2.2149884e-02 -7.1668444e-03
1.1752000e-01 -1.8744800e-02 -8.5665100e-03
1.0033391e-01 -1.5000698e-02 -9.4405878e-03
8.4292778e-02 -1.0917578e-02 -9.7890778e-03
6.9396600e-02 -6.4954400e-03 -9.6119800e-03
6.9396600e-02 -6.4954400e-03 -9.6119800e-03
5.6281120e-02 -4.3334078e-03 -7.6554267e-03
4.3878153e-02 -2.4981144e-03 -5.5734133e-03
3.2187700e-02 -9.8956000e-04 -3.3659400e-03
2.1209760e-02 1.9225556e-04 -1.0330067e-03
1.0944333e-02 1.0473322e-03 1.4253867e-03
1.3914200e-03 1.5756700e-03 4.0092400e-03
7.9657600e-01 4.2989900e-01 -1.3884900e-02
8.0719667e-01 4.3194744e-01 -8.5531500e-03
8.1727767e-01 4.3256811e-01 -3.4630400e-03
8.2681900e-01 4.3176100e-01 1.3854300e-03
8.3582067e-01 4.2952611e-01 5.9922600e-03
8.4428267e-01 4.2586344e-01 1.0357450e-02
8.5220500e-01 4.2077300e-01 1.4481000e-02
8.5220500e-01 4.2077300e-01 1.4481000e-02
8.5901511e-01 4.1125878e-01 1.6879371e-02
8.6528778e-01 4.0078378e-01 1.7920671e-02
8.7102300e-01 3.8934800e-01 1.7604900e-02
8.7622078e-01 3.7695144e-01 1.5932058e-02
8.8088111e-01 3.6359411e-01 1.2902144e-02
8.8500400e-01 3.4927600e-01 8.5151600e-03
8.8500400e-01 3.4927600e-01 8.5151600e-03
8.8883800e-01 3.3390444e-01 4.6986978e-03
8.9184300e-01 3.2043878e-01 1.2277678e-03
8.9401900e-01 3.0887900e-01 -1.8976300e-03
8.9536600e-01 2.9922511e-01 -4.6774956e-03
8.9588400e-01 2.9147711e-01 -7.1118289e-03
8.9557300e-01 2.8563500e-01 -9.2006300e-03
8.9557300e-01 2.8563500e-01 -9.2006300e-03
8.9488944e-01 2.8565822e-01 -9.9821422e-03
8.9488778e-01 2.8605256e-01 -1.0302366e-02
8.9556800e-01 2.8681800e-01 -1.0161300e-02
8.9693011e-01 2.8795456e-01 -9.5589456e-03
8.9897411e-01 2.8946222e-01 -8.4953022e-03
9.0170000e-01 2.9134100e-01 -6.9703700e-03
7.7041900e-01 4.1890300e-01 1.9327800e-02
7.7678611e-01 4.1782178e-01 2.8382544e-02
7.8235578e-01 4.1558778e-01 3.6273911e-02
7.8712800e-01 4.1220100e-01 4.3001900e-02
7.9110278e-01 4.0766144e-01 4.8566511e-02
7.9428011e-01 4.0196911e-01 5.2967744e-02
7.9666000e-01 3.9512400e-01 5.6205600e-02
9.4248500e-01 1.0723100e-01 -3.3618000e-02
9.3489133e-01 9.4875522e-02 -3.2345144e-02
9.2709167e-01 8.3065489e-02 -3.0739778e-02
9.1908600e-01 7.1800900e-02 -2.8801900e-02
9.1087433e-01 6.1081756e-02 -2.6531511e-02
9.0245667e-01 5.0908056e-02 -2.3928611e-02
8.9383300e-01 4.1279800e-02 -2.0993200e-02
8.9383300e-01 4.1279800e-02 -2.0993200e-02
8.8918167e-01 3.5549800e-02 -2.0240574e-02
8.8351000e-01 3.0291100e-02 -1.8476874e-02
8.7681800e-01 2.5503700e-02 -1.5702100e-02
8.6910567e-01 2.1187600e-02 -1.1916251e-02
8.6037300e-01 1.7342800e-02 -7.1193278e-03
8.5062000e-01 1.3969300e-02 -1.3113300e-03
8.5062000e-01 1.3969300e-02 -1.3113300e-03
8.3974700e-01 9.9249278e-03 3.7535389e-03
8.2852933e-01 6.3795478e-03 8.4023822e-03
8.1696700e-01 3.3331600e-03 1.2635200e-02
8.0506000e-01 7.8576444e-04 1.6451992e-02
7.9280833e-01 -1.2626389e-03 1.9852759e-02
7.8021200e-01 -2.8120500e-03 2.2837500e-02
7.8021200e-01 -2.8120500e-03 2.2837500e-02
7.6238833e-01 -4.4702289e-03 2.5560522e-02
7.4411667e-01 -5.8013156e-03 2.7402622e-02
7.2539700e-01 -6.8053100e-03 2.8363800e-02
7.0622933e-01 -7.4822122e-03 2.8444056e-02
6.8661367e-01 -7.8320222e-03 2.7643389e-02
6.6655000e-01 -7.8547400e-03 2.5961800e-02
6.6655000e-01 -7.8547400e-03 2.5961800e-02
6.4972900e-01 -6.5810867e-03 2.4599511e-02
6.3310733e-01 -4.9321667e-03 2.3005911e-02
6.1668500e-01 -2.9079800e-03 2.1181000e-02
6.0046200e-01 -5.0852667e-04 1.9124778e-02
5.8443833e-01 2.2661933e-03 1.6837244e-02
5.6861400e-01 5.4161800e-03 1.4318400e-02
5.6861400e-01 5.4161800e-03 1.4318400e-02
5.5256300e-01 7.9316778e-03 1.1094714e-02
5.3631867e-01 1.0695818e-02 7.8739878e-03
5.1988100e-01 1.3708600e-02 4.6562200e-03
5.0325000e-01 1.6970024e-02 1.4414111e-03
4.8642567e-01 2.0480091e-02 -1.7704389e-03
4.6940800e-01 2.4238800e-02 -4.9793300e-03
4.6940800e-01 2.4238800e-02 -4.9793300e-03
4.5390789e-01 2.7314256e-02 -8.0068722e-03
4.3725056e-01 3.0807722e-02 -1.0534829e-02
4.1943600e-01 3.4719200e-02 -1.2563200e-02
4.0046422e-01 3.9048689e-02 -1.4091986e-02
3.8033522e-01 4.3796189e-02 -1.5121186e-02
3.5904900e-01 4.8961700e-02 -1.5650800e-02
3.5904900e-01 4.8961700e-02 -1.5650800e-02
3.3415744e-01 5.5656800e-02 -1.4646020e-02
3.1021578e-01 6.0971433e-02 -1.3413787e-02
2.8722400e-01 6.4905600e-02 -1.1954100e-02
2.6518211e-01 6.7459300e-02 -1.0266960e-02
2.4409011e-01 6.8632533e-02 -8.3523667e-03
2.2394800e-01 6.8425300e-02 -6.2103200e-03
2.2394800e-01 6.8425300e-02 -6.2103200e-03
2.0252311e-01 6.6519278e-02 -4.0433172e-03
1.8250844e-01 6.3868644e-02 -2.0794622e-03
1.6390400e-01 6.0473400e-02 -3.1875500e-04
1.4670978e-01 5.6333544e-02 1.2388044e-03
1.3092578e-01 5.1449078e-02 2.5932161e-03
1.1655200e-01 4.5820000e-02 3.7444800e-03
1.1655200e-01 4.5820000e-02 3.7444800e-03
1.0294432e-01 4.0461167e-02 5.5665056e-03
8.9974322e-02 3.5179633e-02 7.2788822e-03
7.7642000e-02 2.9975400e-02 8.8816100e-03
6.5947356e-02 2.4848467e-02 1.0374689e-02
5.4890389e-02 1.9798833e-02 1.1758119e-02
4.4471100e-02 1.4826500e-02 1.3031900e-02
4.4471100e-02 1.4826500e-02 1.3031900e-02
3.8656696e-02 1.2646574e-02 1.0815863e-02
3.2699862e-02 9.9782844e-03 8.6606567e-03
2.6600600e-02 6.8216300e-03 6.5662800e-03
2.0358909e-02 3.1766111e-03 4.5327333e-03
1.3974789e-02 -9.5677222e-04 2.5600167e-03
7.4482400e-03 -5.5785200e-03 6.4813000e-04
2.9983400e+00 2.1362400e-01 7.1532200e-02
2.9935100e+00 1.9732389e-01 7.6702278e-02
2.9882333e+00 1.8152722e-01 8.1743511e-02
2.9825100e+00 1.6623400e-01 8.6655900e-02
2.9763400e+00 1.5144422e-01 9.1439444e-02
2.9697233e+00 1.3715789e-01 9.6094144e-02
2.9626600e+00 1.2337500e-01 1.0062000e-01
2.9626600e+00 1.2337500e-01 1.0062000e-01
2.9564478e+00 1.1418089e-01 1.0354133e-01
2.9501211e+00 1.0748756e-01 1.0625800e-01
2.9436800e+00 1.0329500e-01 1.0877000e-01
2.9371244e+00 1.0160322e-01 1.1107733e-01
2.9304544e+00 1.0241222e-01 1.1318000e-01
2.9236700e+00 1.0572200e-01 1.1507800e-01
2.9236700e+00 1.0572200e-01 1.1507800e-01
2.9166911e+00 1.0867978e-01 1.1669867e-01
2.9088211e+00 1.1195678e-01 1.1845733e-01
2.9000600e+00 1.1555300e-01 1.2035400e-01
2.8904078e+00 1.1946844e-01 1.2238867e-01
2.8798644e+00 1.2370311e-01 1.2456133e-01
2.8684300e+00 1.2825700e-01 1.2687200e-01
2.8684300e+00 1.2825700e-01 1.2687200e-01
2.8531244e+00 1.3327344e-01 1.3077844e-01
2.8385644e+00 1.3589278e-01 1.3455511e-01
2.8247500e+00 1.3611500e-01 1.3820200e-01
2.8116811e+00 1.3394011e-01 1.4171911e-01
2.7993578e+00 1.2936811e-01 1.4510644e-01
2.7877800e+00 1.2239900e-01 1.4836400e-01
2.7877800e+00 1.2239900e-01 1.4836400e-01
2.7787189e+00 1.1442906e-01 1.4960156e-01
2.7701422e+00 1.0612266e-01 1.4969589e-01
2.7620500e+00 9.7479800e-02 1.4864700e-01
2.7544422e+00 8.8500489e-02 1.4645489e-01
2.7473189e+00 7.9184722e-02 1.4311956e-01
2.7406800e+00 6.9532500e-02 1.3864100e-01
2.7406800e+00 6.9532500e-02 1.3864100e-01
2.7279644e+00 7.8135167e-02 1.3955311e-01
2.7142178e+00 8.6274400e-02 1.3976744e-01
2.6994400e+00 9.3950200e-02 1.3928400e-01
2.6836311e+00 1.0116257e-01 1.3810278e-01
2.6667911e+00 1.0791150e-01 1.3622378e-01
2.6489200e+00 1.1419700e-01 1.3364700e-01
2.6489200e+00 1.1419700e-01 1.3364700e-01
2.6319033e+00 1.1795456e-01 1.2830389e-01
2.6161767e+00 1.1976489e-01 1.2250189e-01
2.6017400e+00 1.1962800e-01 1.1624100e-01
2.5885933e+00 1.1754389e-01 1.0952122e-01
2.5767367e+00 1.1351256e-01 1.0234256e-01
2.5661700e+00 1.0753400e-01 9.4705000e-02
2.5661700e+00 1.0753400e-01 9.4705000e-02
2.5572911e+00 9.9718344e-02 9.0120533e-02
2.5475778e+00 9.1608078e-02 8.5124600e-02
2.5370300e+00 8.3203200e-02 7.9717200e-02
2.5256478e+00 7.4503711e-02 7.3898333e-02
2.5134311e+00 6.5509611e-02 6.7668000e-02
2.5003800e+00 5.6220900e-02 6.1026200e-02
2.5003800e+00 5.6220900e-02 6.1026200e-02
2.4840811e+00 4.7096244e-02 5.2280689e-02
2.4661478e+00 4.0143811e-02 4.4273989e-02
2.4465800e+00 3.5363600e-02 3.7006100e-02
2.4253778e+00 3.2755611e-02 3.0477022e-02
2.4025411e+00 3.2319844e-02 2.4686756e-02
2.3780700e+00 3.4056300e-02 1.9635300e-02
2.3780700e+00 3.4056300e-02 1.9635300e-02
2.3531644e+00 4.0597789e-02 1.7412256e-02
2.3305744e+00 4.7098789e-02 1.5730022e-02
2.3103000e+00 5.3559300e-02 1.4588600e-02
2.2923411e+00 5.9979322e-02 1.3987989e-02
2.2766978e+00 6.6358856e-02 1.3928189e-02
2.2633700e+00 7.2697900e-02 1.4409200e-02
2.3045900e+00 9.7242500e-02 -2.9106800e-04
2.3012256e+00 9.0325067e-02 1.5926778e-04
2.2964589e+00 8.4538300e-02 1.4094871e-03
2.2902900e+00 7.9882200e-02 3.4595900e-03
2.2827189e+00 7.6356767e-02 6.3095764e-03
2.2737456e+00 7.3962000e-02 9.9594464e-03
2.2633700e+00 7.2697900e-02 1.4409200e-02
2.8541000e+00 2.3372900e-01 6.9737600e-02
2.8453322e+00 2.2694000e-01 6.3663289e-02
2.8365822e+00 2.2003667e-01 5.7280189e-02
2.8278500e+00 2.1301900e-01 5.0588300e-02
2.8191356e+00 2.0588700e-01 4.3587622e-02
2.8104389e+00 1.9864067e-01 3.6278156e-02
2.8017600e+00 1.9128000e-01 2.8659900e-02
2.8017600e+00 1.9128000e-01 2.8659900e-02
2.7935433e+00 1.8235056e-01 2.1179322e-02
2.7855033e+00 1.7400889e-01 1.5645089e-02
2.7776400e+00 1.6625500e-01 1.2057200e-02
2.7699533e+00 1.5908889e-01 1.0415656e-02
2.7624433e+00 1.5251056e-01 1.0720456e-02
2.7551100e+00 1.4652000e-01 1.2971600e-02
2.7551100e+00 1.4652000e-01 1.2971600e-02
2.7434300e+00 1.4359622e-01 2.2449567e-02
2.7308567e+00 1.4151322e-01 3.2097033e-02
2.7173900e+00 1.4027100e-01 4.1914000e-02
2.7030300e+00 1.3986956e-01 5.1900467e-02
2.6877767e+00 1.4030889e-01 6.2056433e-02
2.6716300e+00 1.4158900e-01 7.2381900e-02
2.6716300e+00 1.4158900e-01 7.2381900e-02
2.6560078e+00 1.4503067e-01 8.4015278e-02
2.6397211e+00 1.4767000e-01 9.5888978e-02
2.6227700e+00 1.4950700e-01 1.0800300e-01
2.6051544e+00 1.5054167e-01 1.2035734e-01
2.5868744e+00 1.5077400e-01 1.3295201e-01
2.5679300e+00 1.5020400e-01 1.4578700e-01
2.5679300e+00 1.5020400e-01 1.4578700e-01
2.5486044e+00 1.4033533e-01 1.4471823e-01
2.5277444e+00 1.3159500e-01 1.3901590e-01
2.5053500e+00 1.2398300e-01 1.2868000e-01
2.4814211e+00 1.1749933e-01 1.1371053e-01
2.4559578e+00 1.1214400e-01 9.4107500e-02
2.4289600e+00 1.0791700e-01 6.9870900e-02
2.4289600e+00 1.0791700e-01 6.9870900e-02
2.4041733e+00 1.0685028e-01 5.1483174e-02
2.3810100e+00 1.0549861e-01 3.5773074e-02
2.3594700e+00 1.0386200e-01 2.2740600e-02
2.3395533e+00 1.0194044e-01 1.2385752e-02
2.3212600e+00 9.9733944e-02 4.7085289e-03
2.3045900e+00 9.7242500e-02 -2.9106800e-04
1.6793700e+00 1.6076300e-01 -1.0974600e-02
1.6973311e+00 1.4697699e-01 -8.4176556e-03
1.7184911e+00 1.3419366e-01 -7.3591756e-03
1.7428500e+00 1.2241300e-01 -7.7991600e-03
1.7704078e+00 1.1163502e-01 -9.7376089e-03
1.8011644e+00 1.0185972e-01 -1.3174522e-02
1.8351200e+00 9.3087100e-02 -1.8109900e-02
1.8351200e+00 9.3087100e-02 -1.8109900e-02
1.8671833e+00 9.4456167e-02 -1.8583793e-02
1.8979367e+00 9.8284133e-02 -1.8051660e-02
1.9273800e+00 1.0457100e-01 -1.6513500e-02
1.9555133e+00 1.1331677e-01 -1.3969313e-02
1.9823367e+00 1.2452143e-01 -1.0419100e-02
2.0078500e+00 1.3818500e-01 -5.8628600e-03
2.0078500e+00 1.3818500e-01 -5.8628600e-03
2.0316933e+00 1.5151689e-01 -3.0649911e-03
2.0564000e+00 1.6213422e-01 -3.8497778e-04
2.0819700e+00 1.7003700e-01 2.1771800e-03
2.1084033e+00 1.7522522e-01 4.6214822e-03
2.1357000e+00 1.7769889e-01 6.9479289e-03
2.1638600e+00 1.7745800e-01 9.1565200e-03
2.1638600e+00 1.7745800e-01 9.1565200e-03
2.1933567e+00 1.6693694e-01 9.2811909e-03
2.2204367e+00 1.5527661e-01 8.7261542e-03
2.2451000e+00 1.4247700e-01 7.4914100e-03
2.2673467e+00 1.2853811e-01 5.5769582e-03
2.2871767e+00 1.1345994e-01 2.9827989e-03
2.3045900e+00 9.7242500e-02 -2.9106800e-04
1.3774800e+00 4.9941600e-01 -1.0298900e-02