# vtk DataFile Version 2.0
test
ASCII
DATASET POLYDATA
POINTS 4361 float
3.6350622e+00 6.5713135e+00 1.1863775e+01
3.7347969e+00 6.6404189e+00 1.1732063e+01
3.8370265e+00 6.7095778e+00 1.1602497e+01
3.9417510e+00 6.7787901e+00 1.1475076e+01
4.0489704e+00 6.8480557e+00 1.1349801e+01
4.1586847e+00 6.9173747e+00 1.1226671e+01
4.2708938e+00 6.9867472e+00 1.1105687e+01
4.2708938e+00 6.9867472e+00 1.1105687e+01
4.3886643e+00 7.0580903e+00 1.0988848e+01
4.5134118e+00 7.1286686e+00 1.0881779e+01
4.6451365e+00 7.1984823e+00 1.0784479e+01
4.7838381e+00 7.2675313e+00 1.0696949e+01
4.9295168e+00 7.3358156e+00 1.0619190e+01
5.0821726e+00 7.4033352e+00 1.0551199e+01
5.0821726e+00 7.4033352e+00 1.0551199e+01
5.2436681e+00 7.4676685e+00 1.0502298e+01
5.4077013e+00 7.5284480e+00 1.0466345e+01
5.5742720e+00 7.5856738e+00 1.0443343e+01
5.7433804e+00 7.6393460e+00 1.0433290e+01
5.9150264e+00 7.6894644e+00 1.0436187e+01
6.0892101e+00 7.7360292e+00 1.0452033e+01
6.0892101e+00 7.7360292e+00 1.0452033e+01
6.2619129e+00 7.7780707e+00 1.0475176e+01
6.4345632e+00 7.8169822e+00 1.0502062e+01
6.6071612e+00 7.8527638e+00 1.0532690e+01
6.7797067e+00 7.8854154e+00 1.0567062e+01
6.9521999e+00 7.9149371e+00 1.0605176e+01
7.1246406e+00 7.9413288e+00 1.0647032e+01
7.1246406e+00 7.9413288e+00 1.0647032e+01
7.2974104e+00 7.9652273e+00 1.0688961e+01
7.4711440e+00 7.9865132e+00 1.0726920e+01
7.6458412e+00 8.0051866e+00 1.0760908e+01
7.8215022e+00 8.0212474e+00 1.0790926e+01
7.9981269e+00 8.0346957e+00 1.0816974e+01
8.1757153e+00 8.0455315e+00 1.0839051e+01
8.1757153e+00 8.0455315e+00 1.0839051e+01
8.3560437e+00 8.0534749e+00 1.0852339e+01
8.5347844e+00 8.0586014e+00 1.0852242e+01
8.7119374e+00 8.0609111e+00 1.0838762e+01
8.8875026e+00 8.0604040e+00 1.0811897e+01
9.0614801e+00 8.0570800e+00 1.0771648e+01
9.2338698e+00 8.0509392e+00 1.0718015e+01
9.2338698e+00 8.0509392e+00 1.0718015e+01
9.3988688e+00 8.0419191e+00 1.0645681e+01
9.5566535e+00 8.0314975e+00 1.0562676e+01
9.7072240e+00 8.0196743e+00 1.0469001e+01
9.8505802e+00 8.0064497e+00 1.0364655e+01
9.9867222e+00 7.9918235e+00 1.0249639e+01
1.0115650e+01 7.9757957e+00 1.0123952e+01
1.0115650e+01 7.9757957e+00 1.0123952e+01
1.0236764e+01 7.9619759e+00 9.9927247e+00
1.0355417e+01 7.9475431e+00 9.8594719e+00
1.0471608e+01 7.9324973e+00 9.7241935e+00
1.0585337e+01 7.9168385e+00 9.5868897e+00
1.0696605e+01 7.9005668e+00 9.4475603e+00
1.0805411e+01 7.8836822e+00 9.3062054e+00
1.0805411e+01 7.8836822e+00 9.3062054e+00
1.0708467e+01 7.8187526e+00 9.1640219e+00
1.0612595e+01 7.7528669e+00 9.0215762e+00
1.0517796e+01 7.6860248e+00 8.8788682e+00
1.0424070e+01 7.6182265e+00 8.7358981e+00
1.0331417e+01 7.5494720e+00 8.5926657e+00
1.0239836e+01 7.4797612e+00 8.4491710e+00
1.0239836e+01 7.4797612e+00 8.4491710e+00
1.0150531e+01 7.4116101e+00 8.3031847e+00
1.0065824e+01 7.3420743e+00 8.1555044e+00
9.9857165e+00 7.2711537e+00 8.0061302e+00
9.9102074e+00 7.1988484e+00 7.8550621e+00
9.8392970e+00 7.1251583e+00 7.7023001e+00
9.7729852e+00 7.0500836e+00 7.5478442e+00
9.7729852e+00 7.0500836e+00 7.5478442e+00
9.7137734e+00 6.9729795e+00 7.3907418e+00
9.6635878e+00 6.8937995e+00 7.2326764e+00
9.6224285e+00 6.8125437e+00 7.0736482e+00
9.5902954e+00 6.7292119e+00 6.9136570e+00
9.5671886e+00 6.6438043e+00 6.7527029e+00
9.5531081e+00 6.5563208e+00 6.5907858e+00
9.5531081e+00 6.5563208e+00 6.5907858e+00
9.5511559e+00 6.4668528e+00 6.4292344e+00
9.5593908e+00 6.3762709e+00 6.2698393e+00
9.5778128e+00 6.2845752e+00 6.1126006e+00
9.6064218e+00 6.1917656e+00 5.9575184e+00
9.6452178e+00 6.0978421e+00 5.8045925e+00
9.6942009e+00 6.0028047e+00 5.6538230e+00
9.6942009e+00 6.0028047e+00 5.6538230e+00
9.7513538e+00 5.9075055e+00 5.5070626e+00
9.8140063e+00 5.8116844e+00 5.3634650e+00
9.8821583e+00 5.7153414e+00 5.2230301e+00
9.9558099e+00 5.6184764e+00 5.0857581e+00
1.0034961e+01 5.5210896e+00 4.9516488e+00
1.0119612e+01 5.4231809e+00 4.8207023e+00
1.0119612e+01 5.4231809e+00 4.8207023e+00
1.0207193e+01 5.3249857e+00 4.6924297e+00
1.0296317e+01 5.2257800e+00 4.5661195e+00
1.0386984e+01 5.1255638e+00 4.4417716e+00
1.0479194e+01 5.0243371e+00 4.3193861e+00
1.0572946e+01 4.9220999e+00 4.1989630e+00
1.0668242e+01 4.8188523e+00 4.0805022e+00
1.0668242e+01 4.8188523e+00 4.0805022e+00
1.0763365e+01 4.7138863e+00 3.9634645e+00
1.0856783e+01 4.6067447e+00 3.8471252e+00
1.0948497e+01 4.4974275e+00 3.7314844e+00
1.1038507e+01 4.3859346e+00 3.6165420e+00
1.1126812e+01 4.2722660e+00 3.5022982e+00
1.1213412e+01 4.1564217e+00 3.3887528e+00
1.1213412e+01 4.1564217e+00 3.3887528e+00
1.1296720e+01 4.0377493e+00 3.2751004e+00
1.1374212e+01 3.9159233e+00 3.1614608e+00
1.1445890e+01 3.7909437e+00 3.0478341e+00
1.1511752e+01 3.6628106e+00 2.9342201e+00
1.1571800e+01 3.5315239e+00 2.8206190e+00
1.1626032e+01 3.3970836e+00 2.7070307e+00
1.1626032e+01 3.3970836e+00 2.7070307e+00
1.1672112e+01 3.2586027e+00 2.5935857e+00
1.1708137e+01 3.1179938e+00 2.4809958e+00
1.1734107e+01 2.9752567e+00 2.3692609e+00
1.1750022e+01 2.8303915e+00 2.2583811e+00
1.1755882e+01 2.6833982e+00 2.1483562e+00
1.1751687e+01 2.5342768e+00 2.0391864e+00
1.1751687e+01 2.5342768e+00 2.0391864e+00
1.1735089e+01 2.3852045e+00 1.9314296e+00
1.1709601e+01 2.2368916e+00 1.8258859e+00
1.1675221e+01 2.0893380e+00 1.7225553e+00
1.1631951e+01 1.9425436e+00 1.6214378e+00
1.1579790e+01 1.7965086e+00 1.5225335e+00
1.1518738e+01 1.6512329e+00 1.4258422e+00
1.1518738e+01 1.6512329e+00 1.4258422e+00
1.1450613e+01 1.5080948e+00 1.3318197e+00
1.1378088e+01 1.3662574e+00 1.2396349e+00
1.1301165e+01 1.2257205e+00 1.1492877e+00
1.1219843e+01 1.0864843e+00 1.0607781e+00
1.1134122e+01 9.4854875e-01 9.7410616e-01
1.1044002e+01 8.1191381e-01 8.8927186e-01
1.1044002e+01 8.1191381e-01 8.8927186e-01
1.0951999e+01 6.7584760e-01 8.0591145e-01
1.0858863e+01 5.4021916e-01 7.2313106e-01
1.0764594e+01 4.0502851e-01 6.4093071e-01
1.0669190e+01 2.7027564e-01 5.5931038e-01
1.0572653e+01 1.3596055e-01 4.7827008e-01
1.0474982e+01 2.0832400e-03 3.9780980e-01
1.5134850e+00 5.3616861e+00 1.1667558e+01
1.4879966e+00 5.3240590e+00 1.1480863e+01
1.4644179e+00 5.2852241e+00 1.1294225e+01
1.4427488e+00 5.2451815e+00 1.1107646e+01
1.4229893e+00 5.2039312e+00 1.0921125e+01
1.4051395e+00 5.1614731e+00 1.0734663e+01
1.3891992e+00 5.1178073e+00 1.0548258e+01
1.3891992e+00 5.1178073e+00 1.0548258e+01
1.3785300e+00 5.0752697e+00 1.0360616e+01
1.3755778e+00 5.0307713e+00 1.0173880e+01
1.3803426e+00 4.9843121e+00 9.9880518e+00
1.3928243e+00 4.9358921e+00 9.8031303e+00
1.4130230e+00 4.8855114e+00 9.6191158e+00
1.4409386e+00 4.8331699e+00 9.4360083e+00
1.4409386e+00 4.8331699e+00 9.4360083e+00
1.4819612e+00 4.7773967e+00 9.2553256e+00
1.5343088e+00 4.7191624e+00 9.0803347e+00
1.5979816e+00 4.6584670e+00 8.9110358e+00
1.6729794e+00 4.5953104e+00 8.7474287e+00
1.7593023e+00 4.5296926e+00 8.5895134e+00
1.8569502e+00 4.4616138e+00 8.4372900e+00
1.8569502e+00 4.4616138e+00 8.4372900e+00
1.9661251e+00 4.3915259e+00 8.2948572e+00
2.0820969e+00 4.3201348e+00 8.1600812e+00
2.2048656e+00 4.2474404e+00 8.0329619e+00
2.3344312e+00 4.1734427e+00 7.9134993e+00
2.4707938e+00 4.0981418e+00 7.8016934e+00
2.6139533e+00 4.0215375e+00 7.6975442e+00
2.6139533e+00 4.0215375e+00 7.6975442e+00
2.7588201e+00 3.9442988e+00 7.5981913e+00
2.9047334e+00 3.8655543e+00 7.5018484e+00
3.0516932e+00 3.7853041e+00 7.4085158e+00
3.1996995e+00 3.7035481e+00 7.3181932e+00
3.3487523e+00 3.6202865e+00 7.2308808e+00
3.4988515e+00 3.5355192e+00 7.1465785e+00
3.4988515e+00 3.5355192e+00 7.1465785e+00
3.6489033e+00 3.4487721e+00 7.0640721e+00
3.7965952e+00 3.3592558e+00 6.9806341e+00
3.9419272e+00 3.2669703e+00 6.8962644e+00
4.0848994e+00 3.1719155e+00 6.8109630e+00
4.2255116e+00 3.0740914e+00 6.7247299e+00
4.3637639e+00 2.9734981e+00 6.6375652e+00
4.3637639e+00 2.9734981e+00 6.6375652e+00
4.4981948e+00 2.8691963e+00 6.5470569e+00
4.6247644e+00 2.7610064e+00 6.4520532e+00
4.7434728e+00 2.6489283e+00 6.3525539e+00
4.8543198e+00 2.5329620e+00 6.2485591e+00
4.9573057e+00 2.4131075e+00 6.1400688e+00
5.0524302e+00 2.2893649e+00 6.0270831e+00
5.0524302e+00 2.2893649e+00 6.0270831e+00
5.1337975e+00 2.1610775e+00 5.9072402e+00
5.2023747e+00 2.0317273e+00 5.7835604e+00
5.2581619e+00 1.9013143e+00 5.6560436e+00
5.3011591e+00 1.7698385e+00 5.5246898e+00
5.3313662e+00 1.6372999e+00 5.3894991e+00
5.3487832e+00 1.5036986e+00 5.2504713e+00
5.3487832e+00 1.5036986e+00 5.2504713e+00
5.3536139e+00 1.3724107e+00 5.1096792e+00
5.3506997e+00 1.2424652e+00 4.9684108e+00
5.3400406e+00 1.1138620e+00 4.8266660e+00
5.3216368e+00 9.8660104e-01 4.6844450e+00
5.2954881e+00 8.6068245e-01 4.5417476e+00
5.2615946e+00 7.3610616e-01 4.3985739e+00
5.2615946e+00 7.3610616e-01 4.3985739e+00
5.2240454e+00 6.1225466e-01 4.2565307e+00
5.1845092e+00 4.8890486e-01 4.1145946e+00
5.1429859e+00 3.6605676e-01 3.9727654e+00
5.0994755e+00 2.4371036e-01 3.8310433e+00
5.0539780e+00 1.2186566e-01 3.6894281e+00
5.0064935e+00 5.2266300e-04 3.5479200e+00
2.9553400e-01 5.1360934e+00 1.3915990e+01
3.5040057e-01 5.2398930e+00 1.3758546e+01
4.1843959e-01 5.3445523e+00 1.3611152e+01
4.9965107e-01 5.4500712e+00 1.3473808e+01
5.9403500e-01 5.5564498e+00 1.3346513e+01
7.0159140e-01 5.6636880e+00 1.3229269e+01
8.2232024e-01 5.7717859e+00 1.3122075e+01
8.2232024e-01 5.7717859e+00 1.3122075e+01
9.7695101e-01 5.8723720e+00 1.3058858e+01
1.1384636e+00 5.9637985e+00 1.3011201e+01
1.3068580e+00 6.0460654e+00 1.2979104e+01
1.4821342e+00 6.1191727e+00 1.2962567e+01
1.6642922e+00 6.1831203e+00 1.2961590e+01
1.8533320e+00 6.2379084e+00 1.2976174e+01
1.8533320e+00 6.2379084e+00 1.2976174e+01
2.0438166e+00 6.2875600e+00 1.2990019e+01
2.2313099e+00 6.3330575e+00 1.2985129e+01
2.4158118e+00 6.3744009e+00 1.2961504e+01
2.5973223e+00 6.4115903e+00 1.2919144e+01
2.7758416e+00 6.4446256e+00 1.2858049e+01
2.9513695e+00 6.4735068e+00 1.2778219e+01
2.9513695e+00 6.4735068e+00 1.2778219e+01
3.0967882e+00 6.4966606e+00 1.2651395e+01
3.2296189e+00 6.5170733e+00 1.2514338e+01
3.3498617e+00 6.5347449e+00 1.2367047e+01
3.4575165e+00 6.5496755e+00 1.2209523e+01
[...]
POINT_DATA 4361
VECTORS U float
3.3816000e-01 1.0846500e-01 -3.4823200e-03
3.4205911e-01 1.0607436e-01 -1.4999611e-03
3.4581778e-01 1.0341436e-01 3.0852222e-04
3.4943600e-01 1.0048500e-01 1.9431300e-03
3.5291378e-01 9.7286289e-02 3.4038622e-03
3.5625111e-01 9.3818222e-02 4.6907189e-03
3.5944800e-01 9.0080800e-02 5.8037000e-03
3.5944800e-01 9.0080800e-02 5.8037000e-03
3.6202867e-01 8.7116100e-02 6.8399378e-03
3.6439600e-01 8.3854433e-02 7.5205078e-03
3.6655000e-01 8.0295800e-02 7.8454100e-03
3.6849067e-01 7.6440200e-02 7.8146444e-03
3.7021800e-01 7.2287633e-02 7.4282111e-03
3.7173200e-01 6.7838100e-02 6.6861100e-03
3.7173200e-01 6.7838100e-02 6.6861100e-03
3.7358678e-01 6.2902744e-02 6.4861533e-03
3.7523278e-01 5.8276644e-02 6.4629700e-03
3.7667000e-01 5.3959800e-02 6.6165600e-03
3.7789844e-01 4.9952211e-02 6.9469233e-03
3.7891811e-01 4.6253878e-02 7.4540600e-03
3.7972900e-01 4.2864800e-02 8.1379700e-03
3.7972900e-01 4.2864800e-02 8.1379700e-03
3.8048278e-01 3.9559033e-02 7.8527867e-03
3.8112878e-01 3.6515300e-02 7.6347467e-03
3.8166700e-01 3.3733600e-02 7.4838500e-03
3.8209744e-01 3.1213933e-02 7.4000967e-03
3.8242011e-01 2.8956300e-02 7.3834867e-03
3.8263500e-01 2.6960700e-02 7.4340200e-03
3.8263500e-01 2.6960700e-02 7.4340200e-03
3.8272833e-01 2.5094822e-02 7.7173722e-03
3.8278433e-01 2.3372756e-02 8.0824689e-03
3.8280300e-01 2.1794500e-02 8.5293100e-03
3.8278433e-01 2.0360056e-02 9.0578956e-03
3.8272833e-01 1.9069422e-02 9.6682256e-03
3.8263500e-01 1.7922600e-02 1.0360300e-02
3.8263500e-01 1.7922600e-02 1.0360300e-02
3.8257556e-01 1.6740222e-02 1.0985044e-02
3.8249322e-01 1.5754822e-02 1.1419678e-02
3.8238800e-01 1.4966400e-02 1.1664200e-02
3.8225989e-01 1.4374956e-02 1.1718611e-02
3.8210889e-01 1.3980489e-02 1.1582911e-02
3.8193500e-01 1.3783000e-02 1.1257100e-02
3.8193500e-01 1.3783000e-02 1.1257100e-02
3.8186311e-01 1.3861433e-02 1.1134452e-02
3.8140711e-01 1.4167300e-02 1.0595109e-02
3.8056700e-01 1.4700600e-02 9.6390700e-03
3.7934278e-01 1.5461333e-02 8.2663356e-03
3.7773444e-01 1.6449500e-02 6.4769056e-03
3.7574200e-01 1.7665100e-02 4.2707800e-03
3.7574200e-01 1.7665100e-02 4.2707800e-03
3.7224500e-01 2.1521911e-02 6.9962222e-04
3.6892567e-01 2.5065378e-02 -2.5791711e-03
3.6578400e-01 2.8295500e-02 -5.5656000e-03
3.6282000e-01 3.1212278e-02 -8.2596644e-03
3.6003367e-01 3.3815711e-02 -1.0661364e-02
3.5742500e-01 3.6105800e-02 -1.2770700e-02
3.5742500e-01 3.6105800e-02 -1.2770700e-02
3.5534244e-01 3.4824156e-02 -1.0714314e-02
3.5299011e-01 3.3100889e-02 -8.3109844e-03
3.5036800e-01 3.0936000e-02 -5.5607100e-03
3.4747611e-01 2.8329489e-02 -2.4634911e-03
3.4431444e-01 2.5281356e-02 9.8067222e-04
3.4088300e-01 2.1791600e-02 4.7717800e-03
3.4088300e-01 2.1791600e-02 4.7717800e-03
3.3721111e-01 2.0912489e-02 7.4073889e-03
3.3336944e-01 2.0207289e-02 9.9079289e-03
3.2935800e-01 1.9676000e-02 1.2273400e-02
3.2517678e-01 1.9318622e-02 1.4503802e-02
3.2082578e-01 1.9135156e-02 1.6599136e-02
3.1630500e-01 1.9125600e-02 1.8559400e-02
3.1630500e-01 1.9125600e-02 1.8559400e-02
3.1181044e-01 1.9372256e-02 2.0154478e-02
3.0704211e-01 1.9583122e-02 2.1535311e-02
3.0200000e-01 1.9758200e-02 2.2701900e-02
2.9668411e-01 1.9897489e-02 2.3654244e-02
2.9109444e-01 2.0000989e-02 2.4392344e-02
2.8523100e-01 2.0068700e-02 2.4916200e-02
2.8523100e-01 2.0068700e-02 2.4916200e-02
2.7912078e-01 2.0062367e-02 2.5066133e-02
2.7331844e-01 1.9919700e-02 2.4985567e-02
2.6782400e-01 1.9640700e-02 2.4674500e-02
2.6263744e-01 1.9225367e-02 2.4132933e-02
2.5775878e-01 1.8673700e-02 2.3360867e-02
2.5318800e-01 1.7985700e-02 2.2358300e-02
2.5318800e-01 1.7985700e-02 2.2358300e-02
2.4864322e-01 1.7138478e-02 2.1287478e-02
2.4422622e-01 1.6162544e-02 2.0202011e-02
2.3993700e-01 1.5057900e-02 1.9101900e-02
2.3577556e-01 1.3824544e-02 1.7987144e-02
2.3174189e-01 1.2462478e-02 1.6857744e-02
2.2783600e-01 1.0971700e-02 1.5713700e-02
2.2783600e-01 1.0971700e-02 1.5713700e-02
2.2399400e-01 9.6169233e-03 1.4433260e-02
2.2018100e-01 8.2599900e-03 1.3119360e-02
2.1639700e-01 6.9009000e-03 1.1772000e-02
2.1264200e-01 5.5396533e-03 1.0391180e-02
2.0891600e-01 4.1762500e-03 8.9769000e-03
2.0521900e-01 2.8106900e-03 7.5291600e-03
2.0521900e-01 2.8106900e-03 7.5291600e-03
2.0135311e-01 1.1733800e-03 6.2322029e-03
1.9730444e-01 -5.3568667e-04 4.8922629e-03
1.9307300e-01 -2.3165100e-03 3.5093400e-03
1.8865878e-01 -4.1690900e-03 2.0834342e-03
1.8406178e-01 -6.0934267e-03 6.1454556e-04
1.7928200e-01 -8.0895200e-03 -8.9732600e-04
1.7928200e-01 -8.0895200e-03 -8.9732600e-04
1.7408378e-01 -1.0080689e-02 -2.5692589e-03
1.6845144e-01 -1.2039082e-02 -4.1992169e-03
1.6238500e-01 -1.3964700e-02 -5.7872000e-03
1.5588444e-01 -1.5857542e-02 -7.3332082e-03
1.4894978e-01 -1.7717609e-02 -8.8372416e-03
1.4158100e-01 -1.9544900e-02 -1.0299300e-02
1.4158100e-01 -1.9544900e-02 -1.0299300e-02
1.3421339e-01 -2.1378944e-02 -1.1178778e-02
1.2667872e-01 -2.2877011e-02 -1.1843311e-02
1.1897700e-01 -2.4039100e-02 -1.2292900e-02
1.1110822e-01 -2.4865211e-02 -1.2527544e-02
1.0307239e-01 -2.5355344e-02 -1.2547244e-02
9.4869500e-02 -2.5509500e-02 -1.2352000e-02
9.4869500e-02 -2.5509500e-02 -1.2352000e-02
8.6646200e-02 -2.4672356e-02 -1.2513133e-02
7.8835900e-02 -2.3584422e-02 -1.2556900e-02
7.1438600e-02 -2.2245700e-02 -1.2483300e-02
6.4454300e-02 -2.0656189e-02 -1.2292333e-02
5.7883000e-02 -1.8815889e-02 -1.1984000e-02
5.1724700e-02 -1.6724800e-02 -1.1558300e-02
5.1724700e-02 -1.6724800e-02 -1.1558300e-02
4.5567822e-02 -1.4487027e-02 -1.1004182e-02
3.9780889e-02 -1.2309260e-02 -1.0345426e-02
3.4363900e-02 -1.0191500e-02 -9.5820300e-03
2.9316856e-02 -8.1337467e-03 -8.7139956e-03
2.4639756e-02 -6.1360000e-03 -7.7413222e-03
2.0332600e-02 -4.1982600e-03 -6.6640100e-03
2.0332600e-02 -4.1982600e-03 -6.6640100e-03
1.6658927e-02 -2.8900550e-03 -5.3194911e-03
1.3193913e-02 -1.6863653e-03 -3.9797811e-03
9.9375600e-03 -5.8719100e-04 -2.6448800e-03
6.8898667e-03 4.0746800e-04 -1.3147878e-03
4.0508333e-03 1.2976117e-03 1.0495556e-05
1.4204600e-03 2.0832400e-03 1.3309700e-03
2.9536500e-01 1.5017400e-01 2.3003000e-02
2.9246356e-01 1.4877811e-01 2.3828267e-02
2.8917156e-01 1.4676078e-01 2.4792400e-02
2.8548900e-01 1.4412200e-01 2.5895400e-02
2.8141589e-01 1.4086178e-01 2.7137267e-02
2.7695222e-01 1.3698011e-01 2.8518000e-02
2.7209800e-01 1.3247700e-01 3.0037600e-02
2.7209800e-01 1.3247700e-01 3.0037600e-02
2.6802267e-01 1.3030656e-01 3.0922544e-02
2.6370267e-01 1.2802389e-01 3.1659411e-02
2.5913800e-01 1.2562900e-01 3.2248200e-02
2.5432867e-01 1.2312189e-01 3.2688911e-02
2.4927467e-01 1.2050256e-01 3.2981544e-02
2.4397600e-01 1.1777100e-01 3.3126100e-02
2.4397600e-01 1.1777100e-01 3.3126100e-02
2.3903889e-01 1.1440797e-01 3.3247556e-02
2.3379156e-01 1.1077663e-01 3.3013456e-02
2.2823400e-01 1.0687700e-01 3.2423800e-02
2.2236622e-01 1.0270907e-01 3.1478589e-02
2.1618822e-01 9.8272833e-02 3.0177822e-02
2.0970000e-01 9.3568300e-02 2.8521500e-02
2.0970000e-01 9.3568300e-02 2.8521500e-02
2.0384556e-01 8.8412022e-02 2.6678800e-02
1.9867689e-01 8.3250956e-02 2.5347200e-02
1.9419400e-01 7.8085100e-02 2.4526700e-02
1.9039689e-01 7.2914456e-02 2.4217300e-02
1.8728556e-01 6.7739022e-02 2.4419000e-02
1.8486000e-01 6.2558800e-02 2.5131800e-02
1.8486000e-01 6.2558800e-02 2.5131800e-02
1.8181467e-01 5.7735100e-02 2.5147556e-02
1.7872533e-01 5.3053400e-02 2.5020722e-02
1.7559200e-01 4.8513700e-02 2.4751300e-02
1.7241467e-01 4.4116000e-02 2.4339289e-02
1.6919333e-01 3.9860300e-02 2.3784689e-02
1.6592800e-01 3.5746600e-02 2.3087500e-02
1.6592800e-01 3.5746600e-02 2.3087500e-02
1.6312078e-01 3.1700011e-02 2.3105433e-02
1.6016611e-01 2.7779011e-02 2.2945867e-02
1.5706400e-01 2.3983600e-02 2.2608800e-02
1.5381444e-01 2.0313778e-02 2.2094233e-02
1.5041744e-01 1.6769544e-02 2.1402167e-02
1.4687300e-01 1.3350900e-02 2.0532600e-02
1.4687300e-01 1.3350900e-02 2.0532600e-02
1.4305711e-01 1.0183928e-02 1.9198344e-02
1.3880444e-01 7.1476578e-03 1.7706544e-02
1.3411500e-01 4.2420900e-03 1.6057200e-02
1.2898878e-01 1.4672244e-03 1.4250311e-02
1.2342578e-01 -1.1769389e-03 1.2285878e-02
1.1742600e-01 -3.6904000e-03 1.0163900e-02
1.1742600e-01 -3.6904000e-03 1.0163900e-02
1.1008654e-01 -6.1336722e-03 7.9027661e-03
1.0251858e-01 -8.0824956e-03 5.8719495e-03
9.4722100e-02 -9.5368700e-03 4.0714500e-03
8.6697111e-02 -1.0496796e-02 2.5012677e-03
7.8443611e-02 -1.0962272e-02 1.1614026e-03
6.9961600e-02 -1.0933300e-02 5.1854700e-05
6.9961600e-02 -1.0933300e-02 5.1854700e-05
6.1986867e-02 -9.9807778e-03 -1.1187496e-03
5.4390867e-02 -8.8788644e-03 -2.0567912e-03
4.7173600e-02 -7.6275600e-03 -2.7622700e-03
4.0335067e-02 -6.2268644e-03 -3.2351861e-03
3.3875267e-02 -4.6767778e-03 -3.4755394e-03
2.7794200e-02 -2.9773000e-03 -3.4833300e-03
2.7794200e-02 -2.9773000e-03 -3.4833300e-03
2.2467195e-02 -2.0914426e-03 -2.7877133e-03
1.7444295e-02 -1.3265972e-03 -2.0464867e-03
1.2725500e-02 -6.8276400e-04 -1.2596500e-03
8.3108096e-03 -1.5994289e-04 -4.2720333e-04
4.2002239e-03 2.4186611e-04 4.5085333e-04
3.9374300e-04 5.2266300e-04 1.3745200e-03
2.9553400e-01 1.6638900e-01 -3.7927500e-03
2.9970311e-01 1.6711444e-01 -1.8499778e-03
3.0368178e-01 1.6726411e-01 -4.5111111e-07
3.0747000e-01 1.6683800e-01 1.7558300e-03
3.1106778e-01 1.6583611e-01 3.4188656e-03
3.1447511e-01 1.6425844e-01 4.9886556e-03
3.1769200e-01 1.6210500e-01 6.4652000e-03
3.1769200e-01 1.6210500e-01 6.4652000e-03
3.2052911e-01 1.5822711e-01 7.3089067e-03
3.2316111e-01 1.5397811e-01 7.6334067e-03
3.2558800e-01 1.4935800e-01 7.4387000e-03
3.2780978e-01 1.4436678e-01 6.7247867e-03
3.2982644e-01 1.3900444e-01 5.4916667e-03
3.3163800e-01 1.3327100e-01 3.7393400e-03
3.3163800e-01 1.3327100e-01 3.7393400e-03
3.3334089e-01 1.2716044e-01 2.2162133e-03
3.3468389e-01 1.2175811e-01 8.1106800e-04
3.3566700e-01 1.1706400e-01 -4.7609600e-04
3.3629022e-01 1.1307811e-01 -1.6452787e-03
3.3655356e-01 1.0980044e-01 -2.6964800e-03
3.3645700e-01 1.0723100e-01 -3.6297000e-03
3.3645700e-01 1.0723100e-01 -3.6297000e-03
3.3603333e-01 1.0693278e-01 -4.1457200e-03
3.3589267e-01 1.0683611e-01 -4.4455067e-03
3.3603500e-01 1.0694100e-01 -4.5290600e-03
3.3646033e-01 1.0724744e-01 -4.3963800e-03
3.3716867e-01 1.0775544e-01 -4.0474667e-03
3.3816000e-01 1.0846500e-01 -3.4823200e-03
2.8430800e-01 1.6129700e-01 8.9738600e-03
2.8702833e-01 1.6064678e-01 1.2408533e-02
2.8939767e-01 1.5951511e-01 1.5404613e-02
2.9141600e-01 1.5790200e-01 1.7962100e-02
2.9308333e-01 1.5580744e-01 2.0080993e-02
2.9439967e-01 1.5323144e-01 2.1761293e-02
2.9536500e-01 1.5017400e-01 2.3003000e-02
3.5742500e-01 3.6105800e-02 -1.2770700e-02
3.5493033e-01 3.2017211e-02 -1.2290578e-02
3.5238300e-01 2.8133411e-02 -1.1721478e-02
3.4978300e-01 2.4454400e-02 -1.1063400e-02
3.4713033e-01 2.0980178e-02 -1.0316344e-02
3.4442500e-01 1.7710744e-02 -9.4803111e-03
3.4166700e-01 1.4646100e-02 -8.5553000e-03
3.4166700e-01 1.4646100e-02 -8.5553000e-03
3.4016056e-01 1.2756553e-02 -8.4422644e-03
3.3824656e-01 1.0977543e-02 -7.9384944e-03
3.3592500e-01 9.3090700e-03 -7.0439900e-03
3.3319589e-01 7.7511333e-03 -5.7587511e-03
3.3005922e-01 6.3037333e-03 -4.0827778e-03
3.2651500e-01 4.9668700e-03 -2.0160700e-03
3.2651500e-01 4.9668700e-03 -2.0160700e-03
3.2264011e-01 3.3932939e-03 -2.6384222e-04
3.1862678e-01 2.0329609e-03 1.3737778e-03
3.1447500e-01 8.8587100e-04 2.8967900e-03
3.1018478e-01 -4.7975778e-05 4.3051944e-03
3.0575611e-01 -7.6857944e-04 5.5989911e-03
3.0118900e-01 -1.2759400e-03 6.7781800e-03
3.0118900e-01 -1.2759400e-03 6.7781800e-03
2.9447900e-01 -1.8613711e-03 8.0184500e-03
2.8755967e-01 -2.3189111e-03 8.9378700e-03
2.8043100e-01 -2.6485600e-03 9.5364400e-03
2.7309300e-01 -2.8503178e-03 9.8141600e-03
2.6554567e-01 -2.9241844e-03 9.7710300e-03
2.5778900e-01 -2.8701600e-03 9.4070500e-03
2.5778900e-01 -2.8701600e-03 9.4070500e-03
2.5124933e-01 -2.3082672e-03 9.0765578e-03
2.4474433e-01 -1.5979069e-03 8.6452578e-03
2.3827400e-01 -7.3907900e-04 8.1131500e-03
2.3183833e-01 2.6821644e-04 7.4802344e-03
2.2543733e-01 1.4239794e-03 6.7465111e-03
2.1907100e-01 2.7282100e-03 5.9119800e-03
2.1907100e-01 2.7282100e-03 5.9119800e-03
2.1262600e-01 3.7807167e-03 4.8035723e-03
2.0608267e-01 4.9419467e-03 3.7052123e-03
1.9944100e-01 6.2119000e-03 2.6169000e-03
1.9270100e-01 7.5905767e-03 1.5386353e-03
1.8586267e-01 9.0779767e-03 4.7041833e-04
1.7892600e-01 1.0674100e-02 -5.8775100e-04
1.7892600e-01 1.0674100e-02 -5.8775100e-04
1.7262956e-01 1.2003300e-02 -1.6026639e-03
1.6589522e-01 1.3433733e-02 -2.4299136e-03
1.5872300e-01 1.4965400e-02 -3.0695000e-03
1.5111289e-01 1.6598300e-02 -3.5214232e-03
1.4306489e-01 1.8332433e-02 -3.7856832e-03
1.3457900e-01 2.0167800e-02 -3.8622800e-03
1.3457900e-01 2.0167800e-02 -3.8622800e-03
1.2456286e-01 2.2556367e-02 -3.2245847e-03
1.1501686e-01 2.4411067e-02 -2.5384747e-03
1.0594100e-01 2.5731900e-02 -1.8039500e-03
9.7335289e-02 2.6518867e-02 -1.0210107e-03
8.9199722e-02 2.6771967e-02 -1.8965667e-04
8.1534300e-02 2.6491200e-02 6.9011200e-04
8.1534300e-02 2.6491200e-02 6.9011200e-04
7.3491011e-02 2.5503956e-02 1.5113044e-03
6.6014711e-02 2.4260856e-02 2.1857004e-03
5.9105400e-02 2.2761900e-02 2.7133000e-03
5.2763078e-02 2.1007089e-02 3.0941031e-03
4.6987744e-02 1.8996422e-02 3.3281098e-03
4.1779400e-02 1.6729900e-02 3.4153200e-03
4.1779400e-02 1.6729900e-02 3.4153200e-03
3.6997222e-02 1.4654100e-02 3.6588044e-03
3.2430422e-02 1.2634967e-02 3.9023944e-03
2.8079000e-02 1.0672500e-02 4.1460900e-03
2.3942956e-02 8.7667000e-03 4.3898911e-03
2.0022289e-02 6.9175667e-03 4.6337978e-03
1.6317000e-02 5.1251000e-03 4.8778100e-03
1.6317000e-02 5.1251000e-03 4.8778100e-03
1.4125457e-02 4.3419811e-03 3.9545086e-03
1.1913470e-02 3.3915178e-03 3.0902952e-03
9.6810400e-03 2.2737100e-03 2.2851700e-03
7.4281667e-03 9.8855778e-04 1.5391329e-03
5.1548500e-03 -4.6393889e-04 8.5218389e-04
2.8610900e-03 -2.0837800e-03 2.2432300e-04
1.1440700e+00 8.5092900e-02 3.0253700e-02
1.1424544e+00 7.8989967e-02 3.2279700e-02
1.1406611e+00 7.3036400e-02 3.4253067e-02
1.1386900e+00 6.7232200e-02 3.6173800e-02
1.1365411e+00 6.1577367e-02 3.8041900e-02
1.1342144e+00 5.6071900e-02 3.9857367e-02
1.1317100e+00 5.0715800e-02 4.1620200e-02
1.1317100e+00 5.0715800e-02 4.1620200e-02
1.1295233e+00 4.7180178e-02 4.2651722e-02
1.1273333e+00 4.4633744e-02 4.3624722e-02
1.1251400e+00 4.3076500e-02 4.4539200e-02
1.1229433e+00 4.2508444e-02 4.5395156e-02
1.1207433e+00 4.2929578e-02 4.6192589e-02
1.1185400e+00 4.4339900e-02 4.6931500e-02
1.1185400e+00 4.4339900e-02 4.6931500e-02
1.1161589e+00 4.5608778e-02 4.7626633e-02
1.1134022e+00 4.6992244e-02 4.8391167e-02
1.1102700e+00 4.8490300e-02 4.9225100e-02
1.1067622e+00 5.0102944e-02 5.0128433e-02
1.1028789e+00 5.1830178e-02 5.1101167e-02
1.0986200e+00 5.3672000e-02 5.2143300e-02
1.0986200e+00 5.3672000e-02 5.2143300e-02
1.0929544e+00 5.5618267e-02 5.3810367e-02
1.0875811e+00 5.6667300e-02 5.5418700e-02
1.0825000e+00 5.6819100e-02 5.6968300e-02
1.0777111e+00 5.6073667e-02 5.8459167e-02
1.0732144e+00 5.4431000e-02 5.9891300e-02
1.0690100e+00 5.1891100e-02 6.1264700e-02
1.0690100e+00 5.1891100e-02 6.1264700e-02
1.0657511e+00 4.9038067e-02 6.1936344e-02
1.0626678e+00 4.6032700e-02 6.2156411e-02
1.0597600e+00 4.2875000e-02 6.1924900e-02
1.0570278e+00 3.9564967e-02 6.1241811e-02
1.0544711e+00 3.6102600e-02 6.0107144e-02
1.0520900e+00 3.2487900e-02 5.8520900e-02
1.0520900e+00 3.2487900e-02 5.8520900e-02
1.0470244e+00 3.5527722e-02 5.8838822e-02
1.0415744e+00 3.8401722e-02 5.8862122e-02
1.0357400e+00 4.1109900e-02 5.8590800e-02
1.0295211e+00 4.3652256e-02 5.8024856e-02
1.0229178e+00 4.6028789e-02 5.7164289e-02
1.0159300e+00 4.8239500e-02 5.6009100e-02
1.0159300e+00 4.8239500e-02 5.6009100e-02
1.0093873e+00 4.9457778e-02 5.3819078e-02
1.0033830e+00 4.9962011e-02 5.1492044e-02
9.9791700e-01 4.9752200e-02 4.9028000e-02
9.9298933e-01 4.8828344e-02 4.6426944e-02
9.8860000e-01 4.7190444e-02 4.3688878e-02
9.8474900e-01 4.4838500e-02 4.0813800e-02
9.8474900e-01 4.4838500e-02 4.0813800e-02
9.8157889e-01 4.1907367e-02 3.9139800e-02
9.7810889e-01 3.8847533e-02 3.7313967e-02
9.7433900e-01 3.5659000e-02 3.5336300e-02
9.7026922e-01 3.2341767e-02 3.3206800e-02
9.6589956e-01 2.8895833e-02 3.0925467e-02
9.6123000e-01 2.5321200e-02 2.8492300e-02
9.6123000e-01 2.5321200e-02 2.8492300e-02
9.5537022e-01 2.1714144e-02 2.5216811e-02
9.4882789e-01 1.8880444e-02 2.2191644e-02
9.4160300e-01 1.6820100e-02 1.9416800e-02
9.3369556e-01 1.5533111e-02 1.6892278e-02
9.2510556e-01 1.5019478e-02 1.4618078e-02
9.1583300e-01 1.5279200e-02 1.2594200e-02
9.1583300e-01 1.5279200e-02 1.2594200e-02
9.0614200e-01 1.7398089e-02 1.1622067e-02
8.9735533e-01 1.9535856e-02 1.0892067e-02
8.8947300e-01 2.1692500e-02 1.0404200e-02
8.8249500e-01 2.3868022e-02 1.0158467e-02
8.7642133e-01 2.6062422e-02 1.0154867e-02
8.7125200e-01 2.8275700e-02 1.0393400e-02
8.8639800e-01 3.7970000e-02 4.7830200e-03
8.8532811e-01 3.5188922e-02 4.8100222e-03
8.8367644e-01 3.2873989e-02 5.2002489e-03
8.8144300e-01 3.1025200e-02 5.9537000e-03
8.7862778e-01 2.9642556e-02 7.0703756e-03
8.7523078e-01 2.8726056e-02 8.5502756e-03
8.7125200e-01 2.8275700e-02 1.0393400e-02
1.0885500e+00 9.3746500e-02 2.8397200e-02
1.0853078e+00 9.1159800e-02 2.6043111e-02
1.0820978e+00 8.8544533e-02 2.3590878e-02
1.0789200e+00 8.5900700e-02 2.1040500e-02
1.0757744e+00 8.3228300e-02 1.8391978e-02
1.0726611e+00 8.0527333e-02 1.5645311e-02
1.0695800e+00 7.7797800e-02 1.2800500e-02
1.0695800e+00 7.7797800e-02 1.2800500e-02
1.0667256e+00 7.4538433e-02 1.0094422e-02
1.0639189e+00 7.1514300e-02 8.1153456e-03
1.0611600e+00 6.8725400e-02 6.8632700e-03
1.0584489e+00 6.6171733e-02 6.3381956e-03
1.0557856e+00 6.3853300e-02 6.5401222e-03
1.0531700e+00 6.1770100e-02 7.4690500e-03
1.0531700e+00 6.1770100e-02 7.4690500e-03
1.0489189e+00 6.0596433e-02 1.1050383e-02
1.0443122e+00 5.9717400e-02 1.4712333e-02
1.0393500e+00 5.9133000e-02 1.8454900e-02
1.0340322e+00 5.8843233e-02 2.2278083e-02
1.0283589e+00 5.8848100e-02 2.6181883e-02
1.0223300e+00 5.9147600e-02 3.0166300e-02
1.0223300e+00 5.9147600e-02 3.0166300e-02
1.0164338e+00 6.0305656e-02 3.4748633e-02
1.0103038e+00 6.1165689e-02 3.9450300e-02
1.0039400e+00 6.1727700e-02 4.4271300e-02
9.9734244e-01 6.1991689e-02 4.9211633e-02
9.9051111e-01 6.1957656e-02 5.4271300e-02
9.8344600e-01 6.1625600e-02 5.9450300e-02
9.8344600e-01 6.1625600e-02 5.9450300e-02
9.7652700e-01 5.7973078e-02 5.9479578e-02
9.6907567e-01 5.4596611e-02 5.7718678e-02
9.6109200e-01 5.1496200e-02 5.4167600e-02
9.5257600e-01 4.8671844e-02 4.8826344e-02
9.4352767e-01 4.6123544e-02 4.1694911e-02
9.3394700e-01 4.3851300e-02 3.2773300e-02
9.3394700e-01 4.3851300e-02 3.2773300e-02
9.2488967e-01 4.2963056e-02 2.5742942e-02
9.1628533e-01 4.2038022e-02 1.9658709e-02
9.0813400e-01 4.1076200e-02 1.4520600e-02
9.0043567e-01 4.0077589e-02 1.0328616e-02
8.9319033e-01 3.9042189e-02 7.0827556e-03
8.8639800e-01 3.7970000e-02 4.7830200e-03
6.4375500e-01 5.8651400e-02 -1.0254600e-03
6.5112933e-01 5.3316033e-02 -1.5472278e-04
6.5978667e-01 4.8488600e-02 1.1450356e-04
6.6972700e-01 4.4169100e-02 -2.1778100e-04
6.8095033e-01 4.0357533e-02 -1.1515764e-03
6.9345667e-01 3.7053900e-02 -2.6868828e-03
7.0724600e-01 3.4258200e-02 -4.8237000e-03
7.0724600e-01 3.4258200e-02 -4.8237000e-03
7.1952233e-01 3.5423556e-02 -5.0714126e-03
7.3109867e-01 3.7410256e-02 -4.9229326e-03
7.4197500e-01 4.0218300e-02 -4.3782600e-03
7.5215133e-01 4.3847689e-02 -3.4373949e-03
7.6162767e-01 4.8298422e-02 -2.1003372e-03
7.7040400e-01 5.3570500e-02 -3.6708700e-04
7.7040400e-01 5.3570500e-02 -3.6708700e-04
7.7876467e-01 5.8676511e-02 8.3978278e-04
7.8760067e-01 6.2787744e-02 2.0731884e-03
7.9691200e-01 6.5904200e-02 3.3331300e-03
8.0669867e-01 6.8025878e-02 4.6196074e-03
8.1696067e-01 6.9152778e-02 5.9326208e-03
8.2769800e-01 6.9284900e-02 7.2721700e-03
8.2769800e-01 6.9284900e-02 7.2721700e-03
8.3968467e-01 6.5421444e-02 7.7470700e-03
8.5079000e-01 6.1015711e-02 7.8660667e-03
8.6101400e-01 5.6067700e-02 7.6291600e-03
8.7035667e-01 5.0577411e-02 7.0363500e-03
8.7881800e-01 4.4544844e-02 6.0876367e-03
8.8639800e-01 3.7970000e-02 4.7830200e-03
5.2261200e-01 1.9139100e-01 -2.8270700e-03