# vtk DataFile Version 2.0
test
ASCII
DATASET POLYDATA
POINTS 4361 float
3.8431392e+00 6.6386315e+00 1.1862174e+01
3.9450653e+00 6.7062041e+00 1.1731603e+01
4.0493972e+00 6.7736660e+00 1.1603064e+01
4.1561350e+00 6.8410171e+00 1.1476555e+01
4.2652787e+00 6.9082573e+00 1.1352079e+01
4.3768283e+00 6.9753867e+00 1.1229633e+01
4.4907838e+00 7.0424054e+00 1.1109219e+01
4.4907838e+00 7.0424054e+00 1.1109219e+01
4.6099440e+00 7.1119189e+00 1.0992901e+01
4.7359532e+00 7.1805060e+00 1.0886132e+01
4.8688115e+00 7.2481665e+00 1.0788911e+01
5.0085188e+00 7.3149006e+00 1.0701238e+01
5.1550752e+00 7.3807081e+00 1.0623114e+01
5.3084806e+00 7.4455891e+00 1.0554539e+01
5.3084806e+00 7.4455891e+00 1.0554539e+01
5.4709726e+00 7.5069765e+00 1.0505424e+01
5.6358924e+00 7.5649893e+00 1.0469410e+01
5.8032400e+00 7.6196275e+00 1.0446494e+01
5.9730155e+00 7.6708911e+00 1.0436677e+01
6.1452189e+00 7.7187801e+00 1.0439959e+01
6.3198501e+00 7.7632945e+00 1.0456341e+01
6.3198501e+00 7.7632945e+00 1.0456341e+01
6.4929577e+00 7.8033300e+00 1.0479390e+01
6.6659541e+00 7.8403887e+00 1.0506212e+01
6.8388392e+00 7.8744707e+00 1.0536806e+01
7.0116130e+00 7.9055759e+00 1.0571173e+01
7.1842754e+00 7.9337043e+00 1.0609312e+01
7.3568266e+00 7.9588559e+00 1.0651223e+01
7.3568266e+00 7.9588559e+00 1.0651223e+01
7.5296363e+00 7.9815940e+00 1.0693357e+01
7.7033915e+00 8.0017991e+00 1.0731551e+01
7.8780922e+00 8.0194712e+00 1.0765805e+01
8.0537384e+00 8.0346103e+00 1.0796119e+01
8.2303301e+00 8.0472163e+00 1.0822493e+01
8.4078673e+00 8.0572894e+00 1.0844927e+01
8.4078673e+00 8.0572894e+00 1.0844927e+01
8.5881600e+00 8.0644509e+00 1.0858543e+01
8.7668496e+00 8.0689169e+00 1.0858663e+01
8.9439364e+00 8.0706874e+00 1.0845286e+01
9.1194201e+00 8.0697624e+00 1.0818413e+01
9.2933010e+00 8.0661420e+00 1.0778044e+01
9.4655788e+00 8.0598260e+00 1.0724179e+01
9.4655788e+00 8.0598260e+00 1.0724179e+01
9.6305245e+00 8.0507569e+00 1.0651729e+01
9.7880319e+00 8.0404757e+00 1.0568375e+01
9.9381010e+00 8.0289826e+00 1.0474114e+01
1.0080732e+01 8.0162775e+00 1.0368947e+01
1.0215925e+01 8.0023605e+00 1.0252874e+01
1.0343679e+01 7.9872314e+00 1.0125895e+01
1.0343679e+01 7.9872314e+00 1.0125895e+01
1.0462722e+01 7.9761303e+00 9.9926354e+00
1.0579427e+01 7.9642092e+00 9.8575164e+00
1.0693795e+01 7.9514680e+00 9.7205384e+00
1.0805824e+01 7.9379068e+00 9.5817014e+00
1.0915516e+01 7.9235255e+00 9.4410054e+00
1.1022870e+01 7.9083243e+00 9.2984503e+00
1.1022870e+01 7.9083243e+00 9.2984503e+00
1.0924725e+01 7.8425021e+00 9.1574892e+00
1.0827499e+01 7.7754296e+00 9.0165094e+00
1.0731191e+01 7.7071067e+00 8.8755108e+00
1.0635802e+01 7.6375335e+00 8.7344935e+00
1.0541332e+01 7.5667099e+00 8.5934575e+00
1.0447780e+01 7.4946360e+00 8.4524028e+00
1.0447780e+01 7.4946360e+00 8.4524028e+00
1.0356293e+01 7.4258628e+00 8.3080628e+00
1.0269294e+01 7.3558071e+00 8.1619556e+00
1.0186784e+01 7.2844688e+00 8.0140812e+00
1.0108761e+01 7.2118479e+00 7.8644396e+00
1.0035228e+01 7.1379444e+00 7.7130308e+00
9.9661822e+00 7.0627584e+00 7.5598548e+00
9.9661822e+00 7.0627584e+00 7.5598548e+00
9.9042376e+00 6.9857545e+00 7.4037854e+00
9.8511507e+00 6.9066553e+00 7.2466295e+00
9.8069215e+00 6.8254607e+00 7.0883870e+00
9.7715500e+00 6.7421706e+00 6.9290578e+00
9.7450362e+00 6.6567852e+00 6.7686421e+00
9.7273801e+00 6.5693044e+00 6.6071397e+00
9.7273801e+00 6.5693044e+00 6.6071397e+00
9.7217566e+00 6.4797875e+00 6.4457971e+00
9.7264582e+00 6.3890804e+00 6.2864468e+00
9.7414848e+00 6.2971830e+00 6.1290888e+00
9.7668364e+00 6.2040953e+00 5.9737231e+00
9.8025132e+00 6.1098174e+00 5.8203497e+00
9.8485149e+00 6.0143493e+00 5.6689685e+00
9.8485149e+00 6.0143493e+00 5.6689685e+00
9.9027167e+00 5.9185261e+00 5.5215328e+00
9.9625058e+00 5.8220936e+00 5.3772528e+00
1.0027882e+01 5.7250520e+00 5.2361286e+00
1.0098846e+01 5.6274010e+00 5.0981602e+00
1.0175397e+01 5.5291409e+00 4.9633475e+00
1.0257536e+01 5.4302715e+00 4.8316906e+00
1.0257536e+01 5.4302715e+00 4.8316906e+00
1.0342636e+01 5.3311782e+00 4.7026316e+00
1.0429293e+01 5.2310771e+00 4.5755064e+00
1.0517507e+01 5.1299680e+00 4.4503151e+00
1.0607278e+01 5.0278509e+00 4.3270577e+00
1.0698607e+01 4.9247260e+00 4.2057342e+00
1.0791493e+01 4.8205931e+00 4.0863445e+00
1.0791493e+01 4.8205931e+00 4.0863445e+00
1.0884090e+01 4.7145994e+00 3.9684474e+00
1.0974862e+01 4.6063779e+00 3.8512331e+00
1.1063808e+01 4.4959288e+00 3.7347016e+00
1.1150929e+01 4.3832521e+00 3.6188529e+00
1.1236225e+01 4.2683477e+00 3.5036870e+00
1.1319694e+01 4.1512157e+00 3.3892039e+00
1.1319694e+01 4.1512157e+00 3.3892039e+00
1.1399606e+01 4.0312496e+00 3.2745489e+00
1.1473444e+01 3.9081835e+00 3.1599327e+00
1.1541210e+01 3.7820172e+00 3.0453554e+00
1.1602902e+01 3.6527508e+00 2.9308170e+00
1.1658521e+01 3.5203842e+00 2.8163173e+00
1.1708067e+01 3.3849175e+00 2.7018566e+00
1.1708067e+01 3.3849175e+00 2.7018566e+00
1.1749468e+01 3.2454322e+00 2.5878802e+00
1.1780773e+01 3.1040295e+00 2.4748996e+00
1.1801983e+01 2.9607095e+00 2.3629150e+00
1.1813097e+01 2.8154720e+00 2.2519263e+00
1.1814115e+01 2.6683173e+00 2.1419336e+00
1.1805038e+01 2.5192451e+00 2.0329367e+00
1.1805038e+01 2.5192451e+00 2.0329367e+00
1.1783674e+01 2.3708078e+00 1.9251220e+00
1.1753698e+01 2.2232526e+00 1.8195729e+00
1.1715109e+01 2.0765795e+00 1.7162892e+00
1.1667907e+01 1.9307884e+00 1.6152711e+00
1.1612093e+01 1.7858794e+00 1.5165186e+00
1.1547667e+01 1.6418524e+00 1.4200316e+00
1.1547667e+01 1.6418524e+00 1.4200316e+00
1.1476112e+01 1.5000265e+00 1.3263312e+00
1.1400364e+01 1.3594608e+00 1.2345201e+00
1.1320425e+01 1.2201553e+00 1.1445982e+00
1.1236293e+01 1.0821100e+00 1.0565655e+00
1.1147970e+01 9.4532495e-01 9.7042195e-01
1.1055454e+01 8.0980008e-01 8.8616764e-01
1.1055454e+01 8.0980008e-01 8.8616764e-01
1.0961433e+01 6.7446760e-01 8.0348649e-01
1.0866392e+01 5.3951667e-01 7.2138126e-01
1.0770331e+01 4.0494730e-01 6.3985195e-01
1.0673251e+01 2.7075949e-01 5.5889854e-01
1.0575152e+01 1.3695323e-01 4.7852106e-01
1.0476033e+01 3.5285200e-03 3.9871948e-01
1.6973710e+00 5.4529941e+00 1.1680616e+01
1.6701456e+00 5.4144761e+00 1.1494451e+01
1.6445786e+00 5.3743659e+00 1.1308450e+01
1.6206698e+00 5.3326635e+00 1.1122612e+01
1.5984193e+00 5.2893690e+00 1.0936939e+01
1.5778271e+00 5.2444822e+00 1.0751429e+01
1.5588932e+00 5.1980033e+00 1.0566084e+01
1.5588932e+00 5.1980033e+00 1.0566084e+01
1.5457615e+00 5.1541253e+00 1.0379038e+01
1.5401923e+00 5.1082316e+00 1.0192812e+01
1.5421856e+00 5.0603221e+00 1.0007407e+01
1.5517414e+00 5.0103968e+00 9.8228211e+00
1.5688597e+00 4.9584557e+00 9.6390554e+00
1.5935406e+00 4.9044989e+00 9.4561098e+00
1.5935406e+00 4.9044989e+00 9.4561098e+00
1.6314474e+00 4.8467316e+00 9.2755562e+00
1.6804617e+00 4.7863460e+00 9.1004692e+00
1.7405836e+00 4.7233420e+00 8.9308488e+00
1.8118129e+00 4.6577195e+00 8.7666949e+00
1.8941498e+00 4.5894787e+00 8.6080076e+00
1.9875942e+00 4.5186195e+00 8.4547869e+00
1.9875942e+00 4.5186195e+00 8.4547869e+00
2.0930011e+00 4.4454596e+00 8.3112377e+00
2.2056492e+00 4.3709818e+00 8.1756588e+00
2.3255386e+00 4.2951863e+00 8.0480503e+00
2.4526692e+00 4.2180729e+00 7.9284120e+00
2.5870411e+00 4.1396417e+00 7.8167441e+00
2.7286543e+00 4.0598927e+00 7.7130464e+00
2.7286543e+00 4.0598927e+00 7.7130464e+00
2.8715879e+00 3.9797068e+00 7.6137333e+00
3.0155355e+00 3.8981002e+00 7.5173288e+00
3.1604972e+00 3.8150731e+00 7.4238329e+00
3.3064729e+00 3.7306253e+00 7.3332455e+00
3.4534627e+00 3.6447568e+00 7.2455668e+00
3.6014665e+00 3.5574678e+00 7.1607967e+00
3.6014665e+00 3.5574678e+00 7.1607967e+00
3.7496981e+00 3.4682203e+00 7.0782471e+00
3.8954650e+00 3.3762656e+00 6.9946555e+00
4.0387672e+00 3.2816035e+00 6.9100220e+00
4.1796048e+00 3.1842340e+00 6.8243464e+00
4.3179777e+00 3.0841572e+00 6.7376289e+00
4.4538859e+00 2.9813730e+00 6.6498694e+00
4.4538859e+00 2.9813730e+00 6.6498694e+00
4.5857741e+00 2.8750394e+00 6.5584508e+00
4.7095161e+00 2.7649232e+00 6.4624352e+00
4.8251118e+00 2.6510244e+00 6.3618228e+00
4.9325612e+00 2.5333429e+00 6.2566135e+00
5.0318643e+00 2.4118789e+00 6.1468073e+00
5.1230212e+00 2.2866323e+00 6.0324043e+00
5.1230212e+00 2.2866323e+00 6.0324043e+00
5.1996055e+00 2.1569647e+00 5.9111112e+00
5.2633150e+00 2.0265354e+00 5.7861628e+00
5.3141498e+00 1.8953441e+00 5.6575593e+00
5.3521098e+00 1.7633911e+00 5.5253005e+00
5.3771951e+00 1.6306762e+00 5.3893865e+00
5.3894056e+00 1.4971994e+00 5.2498173e+00
5.3894056e+00 1.4971994e+00 5.2498173e+00
5.3894568e+00 1.3665526e+00 5.1084522e+00
5.3820313e+00 1.2373260e+00 4.9667340e+00
5.3671292e+00 1.1095193e+00 4.8246627e+00
5.3447505e+00 9.8313273e-01 4.6822382e+00
5.3148952e+00 8.5816619e-01 4.5394606e+00
5.2775633e+00 7.3461970e-01 4.3963299e+00
5.2775633e+00 7.3461970e-01 4.3963299e+00
5.2369931e+00 6.1126732e-01 4.2547433e+00
5.1946011e+00 4.8834000e-01 4.1132925e+00
5.1503874e+00 3.6583775e-01 3.9719773e+00
5.1043518e+00 2.4376057e-01 3.8307979e+00
5.0564945e+00 1.2210844e-01 3.6897542e+00
5.0068153e+00 8.8138500e-04 3.5488462e+00
4.7942200e-01 5.2353724e+00 1.3912814e+01
5.3674157e-01 5.3396457e+00 1.3756603e+01
6.0710792e-01 5.4444493e+00 1.3610386e+01
6.9052107e-01 5.5497832e+00 1.3474163e+01
7.8698100e-01 5.6556475e+00 1.3347934e+01
8.9648773e-01 5.7620420e+00 1.3231700e+01
1.0190412e+00 5.8689669e+00 1.3125459e+01
1.0190412e+00 5.8689669e+00 1.3125459e+01
1.1752381e+00 5.9673597e+00 1.3062797e+01
1.3381934e+00 6.0563688e+00 1.3015381e+01
1.5079070e+00 6.1359944e+00 1.2983211e+01
1.6843790e+00 6.2062363e+00 1.2966288e+01
1.8676093e+00 6.2670947e+00 1.2964610e+01
2.0575980e+00 6.3185694e+00 1.2978179e+01
2.0575980e+00 6.3185694e+00 1.2978179e+01
2.2489648e+00 6.3646634e+00 1.2991141e+01
2.4371484e+00 6.4070456e+00 1.2985447e+01
2.6221488e+00 6.4457159e+00 1.2961098e+01
2.8039659e+00 6.4806744e+00 1.2918093e+01
2.9825998e+00 6.5119210e+00 1.2856431e+01
3.1580505e+00 6.5394558e+00 1.2776115e+01
3.1580505e+00 6.5394558e+00 1.2776115e+01
3.3033069e+00 6.5626247e+00 1.2649107e+01
3.4361333e+00 6.5831377e+00 1.2511973e+01
3.5565297e+00 6.6009949e+00 1.2364712e+01
3.6644962e+00 6.6161963e+00 1.2207326e+01
[...]
POINT_DATA 4361
VECTORS U float
5.4623700e-01 1.7578300e-01 -5.0833500e-03
5.5232744e-01 1.7185956e-01 -1.9602700e-03
5.5818844e-01 1.6750256e-01 8.7488667e-04
5.6382000e-01 1.6271200e-01 3.4221200e-03
5.6922211e-01 1.5748789e-01 5.6814300e-03
5.7439478e-01 1.5183022e-01 7.6528167e-03
5.7933800e-01 1.4573900e-01 9.3362800e-03
5.7933800e-01 1.4573900e-01 9.3362800e-03
5.8330833e-01 1.4094478e-01 1.0893456e-02
5.8693733e-01 1.3569178e-01 1.1873696e-02
5.9022500e-01 1.2998000e-01 1.2277000e-02
5.9317133e-01 1.2380944e-01 1.2103369e-02
5.9577633e-01 1.1718011e-01 1.1352802e-02
5.9804000e-01 1.1009200e-01 1.0025300e-02
5.9804000e-01 1.1009200e-01 1.0025300e-02
6.0089122e-01 1.0221082e-01 9.6130500e-03
6.0342389e-01 9.4817989e-02 9.5270467e-03
6.0563800e-01 8.7913500e-02 9.7672900e-03
6.0753356e-01 8.1497356e-02 1.0333780e-02
6.0911056e-01 7.5569556e-02 1.1226517e-02
6.1036900e-01 7.0130100e-02 1.2445500e-02
6.1036900e-01 7.0130100e-02 1.2445500e-02
6.1152767e-01 6.4818356e-02 1.2066722e-02
6.1251967e-01 5.9921822e-02 1.1784756e-02
6.1334500e-01 5.5440500e-02 1.1599600e-02
6.1400367e-01 5.1374389e-02 1.1511256e-02
6.1449567e-01 4.7723489e-02 1.1519722e-02
6.1482100e-01 4.4487800e-02 1.1625000e-02
6.1482100e-01 4.4487800e-02 1.1625000e-02
6.1495422e-01 4.1461556e-02 1.2113178e-02
6.1503189e-01 3.8658656e-02 1.2713511e-02
6.1505400e-01 3.6079100e-02 1.3426000e-02
6.1502056e-01 3.3722889e-02 1.4250644e-02
6.1493156e-01 3.1590022e-02 1.5187444e-02
6.1478700e-01 2.9680500e-02 1.6236400e-02
6.1478700e-01 2.9680500e-02 1.6236400e-02
6.1469178e-01 2.7716244e-02 1.7189644e-02
6.1455844e-01 2.6070311e-02 1.7840511e-02
6.1438700e-01 2.4742700e-02 1.8189000e-02
6.1417744e-01 2.3733411e-02 1.8235111e-02
6.1392978e-01 2.3042444e-02 1.7978844e-02
6.1364400e-01 2.2669800e-02 1.7420200e-02
6.1364400e-01 2.2669800e-02 1.7420200e-02
6.1351878e-01 2.2699189e-02 1.7182814e-02
6.1278544e-01 2.3145556e-02 1.6293314e-02
6.1144400e-01 2.4008900e-02 1.4751700e-02
6.0949444e-01 2.5289222e-02 1.2557971e-02
6.0693678e-01 2.6986522e-02 9.7121278e-03
6.0377100e-01 2.9100800e-02 6.2141700e-03
6.0377100e-01 2.9100800e-02 6.2141700e-03
5.9820289e-01 3.5676344e-02 6.1034444e-04
5.9293622e-01 4.1731478e-02 -4.5346156e-03
5.8797100e-01 4.7266200e-02 -9.2207100e-03
5.8330722e-01 5.2280511e-02 -1.3447939e-02
5.7894489e-01 5.6774411e-02 -1.7216302e-02
5.7488400e-01 6.0747900e-02 -2.0525800e-02
5.7488400e-01 6.0747900e-02 -2.0525800e-02
5.7160089e-01 5.8573622e-02 -1.7247023e-02
5.6789389e-01 5.5663622e-02 -1.3377800e-02
5.6376300e-01 5.2017900e-02 -8.9181300e-03
5.5920822e-01 4.7636456e-02 -3.8680133e-03
5.5422956e-01 4.2519289e-02 1.7725500e-03
5.4882700e-01 3.6666400e-02 8.0035600e-03
5.4882700e-01 3.6666400e-02 8.0035600e-03
5.4297311e-01 3.5165233e-02 1.2285533e-02
5.3683911e-01 3.3940133e-02 1.6359147e-02
5.3042500e-01 3.2991100e-02 2.0224400e-02
5.2373078e-01 3.2318133e-02 2.3881293e-02
5.1675644e-01 3.1921233e-02 2.7329827e-02
5.0950200e-01 3.1800400e-02 3.0570000e-02
5.0950200e-01 3.1800400e-02 3.0570000e-02
5.0227467e-01 3.2147300e-02 3.3198156e-02
4.9460500e-01 3.2438900e-02 3.5488389e-02
4.8649300e-01 3.2675200e-02 3.7440700e-02
4.7793867e-01 3.2856200e-02 3.9055089e-02
4.6894200e-01 3.2981900e-02 4.0331556e-02
4.5950300e-01 3.3052300e-02 4.1270100e-02
4.5950300e-01 3.3052300e-02 4.1270100e-02
4.4972144e-01 3.2997078e-02 4.1628911e-02
4.4038578e-01 3.2729144e-02 4.1593111e-02
4.3149600e-01 3.2248500e-02 4.1162700e-02
4.2305211e-01 3.1555144e-02 4.0337678e-02
4.1505411e-01 3.0649078e-02 3.9118044e-02
4.0750200e-01 2.9530300e-02 3.7503800e-02
4.0750200e-01 2.9530300e-02 3.7503800e-02
4.0000611e-01 2.8159078e-02 3.5757667e-02
3.9272578e-01 2.6571811e-02 3.3989867e-02
3.8566100e-01 2.4768500e-02 3.2200400e-02
3.7881178e-01 2.2749144e-02 3.0389267e-02
3.7217811e-01 2.0513744e-02 2.8556467e-02
3.6576000e-01 1.8062300e-02 2.6702000e-02
3.6576000e-01 1.8062300e-02 2.6702000e-02
3.5943667e-01 1.5809494e-02 2.4635111e-02
3.5315667e-01 1.3557094e-02 2.2506278e-02
3.4692000e-01 1.1305100e-02 2.0315500e-02
3.4072667e-01 9.0535111e-03 1.8062778e-02
3.3457667e-01 6.8023278e-03 1.5748111e-02
3.2847000e-01 4.5515500e-03 1.3371500e-02
3.2847000e-01 4.5515500e-03 1.3371500e-02
3.2207844e-01 1.8863944e-03 1.1215180e-02
3.1538311e-01 -9.0250889e-04 9.0002102e-03
3.0838400e-01 -3.8151600e-03 6.7265900e-03
3.0108111e-01 -6.8515589e-03 4.3943196e-03
2.9347444e-01 -1.0011706e-02 2.0033989e-03
2.8556400e-01 -1.3295600e-02 -4.4617200e-04
2.8556400e-01 -1.3295600e-02 -4.4617200e-04
2.7696989e-01 -1.6580333e-02 -3.1207344e-03
2.6768356e-01 -1.9778867e-02 -5.7272871e-03
2.5770500e-01 -2.2891200e-02 -8.2658300e-03
2.4703422e-01 -2.5917333e-02 -1.0736363e-02
2.3567122e-01 -2.8857267e-02 -1.3138886e-02
2.2361600e-01 -3.1711000e-02 -1.5473400e-02
2.2361600e-01 -3.1711000e-02 -1.5473400e-02
2.1156933e-01 -3.4549478e-02 -1.6884367e-02
1.9931500e-01 -3.6841244e-02 -1.7939500e-02
1.8685300e-01 -3.8586300e-02 -1.8638800e-02
1.7418333e-01 -3.9784644e-02 -1.8982267e-02
1.6130600e-01 -4.0436278e-02 -1.8969900e-02
1.4822100e-01 -4.0541200e-02 -1.8601700e-02
1.4822100e-01 -4.0541200e-02 -1.8601700e-02
1.3523121e-01 -3.9069078e-02 -1.8820733e-02
1.2293288e-01 -3.7223411e-02 -1.8869967e-02
1.1132600e-01 -3.5004200e-02 -1.8749400e-02
1.0041058e-01 -3.2411444e-02 -1.8459033e-02
9.0186611e-02 -2.9445144e-02 -1.7998867e-02
8.0654100e-02 -2.6105300e-02 -1.7368900e-02
8.0654100e-02 -2.6105300e-02 -1.7368900e-02
7.1067067e-02 -2.2555334e-02 -1.6492641e-02
6.2056900e-02 -1.9105801e-02 -1.5460174e-02
5.3623600e-02 -1.5756700e-02 -1.4271500e-02
4.5767167e-02 -1.2508031e-02 -1.2926618e-02
3.8487600e-02 -9.3597944e-03 -1.1425528e-02
3.1784900e-02 -6.3119900e-03 -9.7682300e-03
3.1784900e-02 -6.3119900e-03 -9.7682300e-03
2.6092149e-02 -4.2700522e-03 -7.7444444e-03
2.0722282e-02 -2.3888556e-03 -5.7295811e-03
1.5675300e-02 -6.6840000e-04 -3.7236400e-03
1.0951202e-02 8.9131444e-04 -1.7266211e-03
6.5499889e-03 2.2902878e-03 2.6147556e-04
2.4716600e-03 3.5285200e-03 2.2406500e-03
4.7925100e-01 2.4148200e-01 3.6061000e-02
4.7461256e-01 2.3919522e-01 3.7416722e-02
4.6933222e-01 2.3590256e-01 3.9016956e-02
4.6341000e-01 2.3160400e-01 4.0861700e-02
4.5684589e-01 2.2629956e-01 4.2950956e-02
4.4963989e-01 2.1998922e-01 4.5284722e-02
4.4179200e-01 2.1267300e-01 4.7863000e-02
4.4179200e-01 2.1267300e-01 4.7863000e-02
4.3525411e-01 2.0916222e-01 4.9344822e-02
4.2831711e-01 2.0548422e-01 5.0591556e-02
4.2098100e-01 2.0163900e-01 5.1603200e-02
4.1324578e-01 1.9762656e-01 5.2379756e-02
4.0511144e-01 1.9344689e-01 5.2921222e-02
3.9657800e-01 1.8910000e-01 5.3227600e-02
3.9657800e-01 1.8910000e-01 5.3227600e-02
3.8852511e-01 1.8374289e-01 5.3478178e-02
3.7994444e-01 1.7796022e-01 5.3147911e-02
3.7083600e-01 1.7175200e-01 5.2236800e-02
3.6119978e-01 1.6511822e-01 5.0744844e-02
3.5103578e-01 1.5805889e-01 4.8672044e-02
3.4034400e-01 1.5057400e-01 4.6018400e-02
3.4034400e-01 1.5057400e-01 4.6018400e-02
3.3072156e-01 1.4234567e-01 4.3059278e-02
3.2222922e-01 1.3409800e-01 4.0924844e-02
3.1486700e-01 1.2583100e-01 3.9615100e-02
3.0863489e-01 1.1754467e-01 3.9130044e-02
3.0353289e-01 1.0923900e-01 3.9469678e-02
2.9956100e-01 1.0091400e-01 4.0634000e-02
2.9956100e-01 1.0091400e-01 4.0634000e-02
2.9458244e-01 9.3143144e-02 4.0689589e-02
2.8952744e-01 8.5599378e-02 4.0501056e-02
2.8439600e-01 7.8282700e-02 4.0068400e-02
2.7918811e-01 7.1193111e-02 3.9391622e-02
2.7390378e-01 6.4330611e-02 3.8470722e-02
2.6854300e-01 5.7695200e-02 3.7305700e-02
2.6854300e-01 5.7695200e-02 3.7305700e-02
2.6391556e-01 5.1148244e-02 3.7280411e-02
2.5903589e-01 4.4788778e-02 3.6967311e-02
2.5390400e-01 3.8616800e-02 3.6366400e-02
2.4851989e-01 3.2632311e-02 3.5477678e-02
2.4288356e-01 2.6835311e-02 3.4301144e-02
2.3699500e-01 2.1225800e-02 3.2836800e-02
2.3699500e-01 2.1225800e-02 3.2836800e-02
2.3063644e-01 1.6026984e-02 3.0592156e-02
2.2355611e-01 1.1064438e-02 2.8088589e-02
2.1575400e-01 6.3381600e-03 2.5326100e-02
2.0723011e-01 1.8481511e-03 2.2304689e-02
1.9798444e-01 -2.4055889e-03 1.9024356e-02
1.8801700e-01 -6.4230600e-03 1.5485100e-02
1.8801700e-01 -6.4230600e-03 1.5485100e-02
1.7589456e-01 -1.0246422e-02 1.1773688e-02
1.6345889e-01 -1.3274402e-02 8.4743543e-03
1.5071000e-01 -1.5507000e-02 5.5871000e-03
1.3764789e-01 -1.6944216e-02 3.1119247e-03
1.2427256e-01 -1.7586049e-02 1.0488283e-03
1.1058400e-01 -1.7432500e-02 -6.0218900e-04
1.1058400e-01 -1.7432500e-02 -6.0218900e-04
9.7829789e-02 -1.5838860e-02 -2.3457594e-03
8.5722522e-02 -1.4018093e-02 -3.7335764e-03
7.4262200e-02 -1.1970200e-02 -4.7656400e-03
6.3448822e-02 -9.6951800e-03 -5.4419501e-03
5.3282389e-02 -7.1930333e-03 -5.7625068e-03
4.3762900e-02 -4.4637600e-03 -5.7273100e-03
4.3762900e-02 -4.4637600e-03 -5.7273100e-03
3.5414879e-02 -3.0787806e-03 -4.5751000e-03
2.7536246e-02 -1.8914499e-03 -3.3485700e-03
2.0127000e-02 -9.0176800e-04 -2.0477200e-03
1.3187142e-02 -1.0973489e-04 -6.7255000e-04
6.7166706e-03 4.8464944e-04 7.7694000e-04
7.1558700e-04 8.8138500e-04 2.3007500e-03
4.7942200e-01 2.6566800e-01 -6.9685500e-03
4.8604411e-01 2.6686711e-01 -3.7929611e-03
4.9235011e-01 2.6716111e-01 -7.6641111e-04
4.9834000e-01 2.6655000e-01 2.1111000e-03
5.0401378e-01 2.6503378e-01 4.8395722e-03
5.0937144e-01 2.6261244e-01 7.4190056e-03
5.1441300e-01 2.5928600e-01 9.8494000e-03
5.1441300e-01 2.5928600e-01 9.8494000e-03
5.1881622e-01 2.5321478e-01 1.1248080e-02
5.2289089e-01 2.4654844e-01 1.1813613e-02
5.2663700e-01 2.3928700e-01 1.1546000e-02
5.3005456e-01 2.3143044e-01 1.0445240e-02
5.3314356e-01 2.2297878e-01 8.5113333e-03
5.3590400e-01 2.1393200e-01 5.7442800e-03
5.3590400e-01 2.1393200e-01 5.7442800e-03
5.3848911e-01 2.0426389e-01 3.3380878e-03
5.4052244e-01 1.9574622e-01 1.1291524e-03
5.4200400e-01 1.8837900e-01 -8.8252600e-04
5.4293378e-01 1.8216222e-01 -2.6969476e-03
5.4331178e-01 1.7709589e-01 -4.3141122e-03
5.4313800e-01 1.7318000e-01 -5.7340200e-03
5.4313800e-01 1.7318000e-01 -5.7340200e-03
5.4255200e-01 1.7289689e-01 -6.4338056e-03
5.4240700e-01 1.7290056e-01 -6.8102989e-03
5.4270300e-01 1.7319100e-01 -6.8635000e-03
5.4344000e-01 1.7376822e-01 -6.5934089e-03
5.4461800e-01 1.7463222e-01 -6.0000256e-03
5.4623700e-01 1.7578300e-01 -5.0833500e-03
4.6214200e-01 2.5806200e-01 1.3466400e-02
4.6633044e-01 2.5716756e-01 1.9002611e-02
4.6998411e-01 2.5552556e-01 2.3830644e-02
4.7310300e-01 2.5313600e-01 2.7950500e-02
4.7568711e-01 2.4999889e-01 3.1362178e-02
4.7773644e-01 2.4611422e-01 3.4065678e-02
4.7925100e-01 2.4148200e-01 3.6061000e-02
5.7488400e-01 6.0747900e-02 -2.0525800e-02
5.7065422e-01 5.3809867e-02 -1.9747756e-02
5.6632522e-01 4.7203733e-02 -1.8804656e-02
5.6189700e-01 4.0929500e-02 -1.7696500e-02
5.5736956e-01 3.4987167e-02 -1.6423289e-02
5.5274289e-01 2.9376733e-02 -1.4985022e-02
5.4801700e-01 2.4098200e-02 -1.3381700e-02
5.4801700e-01 2.4098200e-02 -1.3381700e-02
5.4545311e-01 2.0895788e-02 -1.3101119e-02
5.4224378e-01 1.7910821e-02 -1.2194752e-02
5.3838900e-01 1.5143300e-02 -1.0662600e-02
5.3388878e-01 1.2593224e-02 -8.5046622e-03
5.2874311e-01 1.0260594e-02 -5.7209389e-03
5.2295200e-01 8.1454100e-03 -2.3114300e-03
5.2295200e-01 8.1454100e-03 -2.3114300e-03
5.1657656e-01 5.6391467e-03 6.1125000e-04
5.0998322e-01 3.4613900e-03 3.3236400e-03
5.0317200e-01 1.6121400e-03 5.8257400e-03
4.9614289e-01 9.1396667e-05 8.1175500e-03
4.8889589e-01 -1.1008400e-03 1.0199070e-02
4.8143100e-01 -1.9645700e-03 1.2070300e-02
4.8143100e-01 -1.9645700e-03 1.2070300e-02
4.7060233e-01 -2.9330678e-03 1.3944189e-02
4.5945933e-01 -3.6983611e-03 1.5292656e-02
4.4800200e-01 -4.2604500e-03 1.6115700e-02
4.3623033e-01 -4.6193344e-03 1.6413322e-02
4.2414433e-01 -4.7750144e-03 1.6185522e-02
4.1174400e-01 -4.7274900e-03 1.5432300e-02
4.1174400e-01 -4.7274900e-03 1.5432300e-02
4.0131822e-01 -3.8717111e-03 1.4786112e-02
3.9097456e-01 -2.7807844e-03 1.3985079e-02
3.8071300e-01 -1.4547100e-03 1.3029200e-02
3.7053356e-01 1.0651222e-04 1.1918476e-02
3.6043622e-01 1.9028822e-03 1.0652906e-02
3.5042100e-01 3.9344000e-03 9.2324900e-03
3.5042100e-01 3.9344000e-03 9.2324900e-03
3.4027178e-01 5.5669111e-03 7.3745367e-03
3.2998078e-01 7.3653844e-03 5.5267633e-03
3.1954800e-01 9.3298200e-03 3.6891700e-03
3.0897344e-01 1.1460218e-02 1.8617567e-03
2.9825711e-01 1.3756578e-02 4.4523333e-05
2.8739900e-01 1.6218900e-02 -1.7625300e-03
2.8739900e-01 1.6218900e-02 -1.7625300e-03
2.7753356e-01 1.8255422e-02 -3.4833989e-03
2.6695656e-01 2.0493822e-02 -4.8993689e-03
2.5566800e-01 2.2934100e-02 -6.0104400e-03
2.4366789e-01 2.5576256e-02 -6.8166122e-03
2.3095622e-01 2.8420289e-02 -7.3178856e-03
2.1753300e-01 3.1466200e-02 -7.5142600e-03
2.1753300e-01 3.1466200e-02 -7.5142600e-03
2.0174000e-01 3.5424633e-02 -6.6409136e-03
1.8664000e-01 3.8525733e-02 -5.6655236e-03
1.7223300e-01 4.0769500e-02 -4.5880900e-03
1.5851900e-01 4.2155933e-02 -3.4086129e-03
1.4549800e-01 4.2685033e-02 -2.1270922e-03
1.3317000e-01 4.2356800e-02 -7.4352800e-04
1.3317000e-01 4.2356800e-02 -7.4352800e-04
1.2016519e-01 4.0925289e-02 5.8794889e-04
1.0805616e-01 3.9064722e-02 1.7225149e-03
9.6842900e-02 3.6775100e-02 2.6601700e-03
8.6525422e-02 3.4056422e-02 3.4009142e-03
7.7103722e-02 3.0908689e-02 3.9447476e-03
6.8577800e-02 2.7331900e-02 4.2916700e-03
6.8577800e-02 2.7331900e-02 4.2916700e-03
6.0667500e-02 2.4007994e-02 4.9365844e-03
5.3119167e-02 2.0760528e-02 5.5585311e-03
4.5932800e-02 1.7589500e-02 6.1575100e-03
3.9108400e-02 1.4494911e-02 6.7335211e-03
3.2645967e-02 1.1476761e-02 7.2865644e-03
2.6545500e-02 8.5350500e-03 7.8166400e-03
2.6545500e-02 8.5350500e-03 7.8166400e-03
2.3013214e-02 7.2508133e-03 6.3943702e-03
1.9429214e-02 5.6871967e-03 5.0452402e-03
1.5793500e-02 3.8442000e-03 3.7692500e-03
1.2106071e-02 1.7218233e-03 2.5663996e-03
8.3669278e-03 -6.7993333e-04 1.4366889e-03
4.5760700e-03 -3.3610700e-03 3.8011800e-04
1.8362500e+00 1.3439400e-01 4.6779000e-02
1.8335267e+00 1.2451870e-01 5.0000422e-02
1.8305200e+00 1.1491070e-01 5.3139322e-02
1.8272300e+00 1.0557000e-01 5.6195700e-02
1.8236567e+00 9.6496600e-02 5.9169556e-02
1.8198000e+00 8.7690500e-02 6.2060889e-02
1.8156600e+00 7.9151700e-02 6.4869700e-02
1.8156600e+00 7.9151700e-02 6.4869700e-02
1.8120389e+00 7.3496978e-02 6.6578089e-02
1.8083889e+00 6.9406711e-02 6.8180356e-02
1.8047100e+00 6.6880900e-02 6.9676500e-02
1.8010022e+00 6.5919544e-02 7.1066522e-02
1.7972656e+00 6.6522644e-02 7.2350422e-02
1.7935000e+00 6.8690200e-02 7.3528200e-02
1.7935000e+00 6.8690200e-02 7.3528200e-02
1.7895100e+00 7.0638067e-02 7.4598300e-02
1.7849400e+00 7.2774467e-02 7.5769500e-02
1.7797900e+00 7.5099400e-02 7.7041800e-02
1.7740600e+00 7.7612867e-02 7.8415200e-02
1.7677500e+00 8.0314867e-02 7.9889700e-02
1.7608600e+00 8.3205400e-02 8.1465300e-02
1.7608600e+00 8.3205400e-02 8.1465300e-02
1.7516744e+00 8.6304733e-02 8.4034078e-02
1.7429511e+00 8.7954533e-02 8.6514444e-02
1.7346900e+00 8.8154800e-02 8.8906400e-02
1.7268911e+00 8.6905533e-02 9.1209944e-02
1.7195544e+00 8.4206733e-02 9.3425078e-02
1.7126800e+00 8.0058400e-02 9.5551800e-02
1.7126800e+00 8.0058400e-02 9.5551800e-02
1.7073322e+00 7.5365033e-02 9.6511622e-02
1.7022722e+00 7.0441500e-02 9.6755489e-02
1.6975000e+00 6.5287800e-02 9.6283400e-02
1.6930156e+00 5.9903933e-02 9.5095356e-02
1.6888189e+00 5.4289900e-02 9.3191356e-02
1.6849100e+00 4.8445700e-02 9.0571400e-02
1.6849100e+00 4.8445700e-02 9.0571400e-02
1.6769067e+00 5.3469522e-02 9.1101267e-02
1.6682800e+00 5.8220522e-02 9.1175633e-02
1.6590300e+00 6.2698700e-02 9.0794500e-02
1.6491567e+00 6.6904056e-02 8.9957867e-02
1.6386600e+00 7.0836589e-02 8.8665733e-02
1.6275400e+00 7.4496300e-02 8.6918100e-02
1.6275400e+00 7.4496300e-02 8.6918100e-02
1.6170656e+00 7.6578489e-02 8.3494700e-02
1.6074289e+00 7.7497422e-02 7.9828433e-02
1.5986300e+00 7.7253100e-02 7.5919300e-02
1.5906689e+00 7.5845522e-02 7.1767300e-02
1.5835456e+00 7.3274689e-02 6.7372433e-02
1.5772600e+00 6.9540600e-02 6.2734700e-02
1.5772600e+00 6.9540600e-02 6.2734700e-02
1.5720456e+00 6.4805156e-02 6.0006122e-02
1.5663389e+00 5.9871956e-02 5.7029222e-02
1.5601400e+00 5.4741000e-02 5.3804000e-02
1.5534489e+00 4.9412289e-02 5.0330456e-02
1.5462656e+00 4.3885822e-02 4.6608589e-02
1.5385900e+00 3.8161600e-02 4.2638400e-02
1.5385900e+00 3.8161600e-02 4.2638400e-02
1.5289611e+00 3.2438178e-02 3.7336167e-02
1.5182711e+00 2.7991111e-02 3.2455000e-02
1.5065200e+00 2.4820400e-02 2.7994900e-02
1.4937078e+00 2.2926044e-02 2.3955867e-02
1.4798344e+00 2.2308044e-02 2.0337900e-02
1.4649000e+00 2.2966400e-02 1.7141000e-02
1.4649000e+00 2.2966400e-02 1.7141000e-02
1.4494456e+00 2.6602078e-02 1.5651744e-02
1.4354322e+00 3.0246078e-02 1.4529911e-02
1.4228600e+00 3.3898400e-02 1.3775500e-02
1.4117289e+00 3.7559044e-02 1.3388511e-02
1.4020389e+00 4.1228011e-02 1.3368944e-02
1.3937900e+00 4.4905300e-02 1.3716800e-02
1.4184500e+00 6.0268300e-02 4.7024000e-03
1.4166067e+00 5.5885467e-02 4.8319722e-03
1.4138567e+00 5.2231567e-02 5.5106756e-03
1.4102000e+00 4.9306600e-02 6.7385100e-03
1.4056367e+00 4.7110567e-02 8.5154756e-03
1.4001667e+00 4.5643467e-02 1.0841572e-02
1.3937900e+00 4.4905300e-02 1.3716800e-02
1.7474800e+00 1.4765700e-01 4.4508400e-02
1.7422122e+00 1.4349489e-01 4.0753856e-02
1.7369822e+00 1.3927822e-01 3.6829856e-02
1.7317900e+00 1.3500700e-01 3.2736400e-02
1.7266356e+00 1.3068122e-01 2.8473489e-02
1.7215189e+00 1.2630089e-01 2.4041122e-02
1.7164400e+00 1.2186600e-01 1.9439300e-02
1.7164400e+00 1.2186600e-01 1.9439300e-02
1.7116878e+00 1.1654230e-01 1.5007317e-02
1.7070278e+00 1.1159030e-01 1.1750073e-02
1.7024600e+00 1.0701000e-01 9.6675700e-03
1.6979844e+00 1.0280140e-01 8.7598067e-03
1.6936011e+00 9.8964500e-02 9.0267833e-03
1.6893100e+00 9.5499300e-02 1.0468500e-02
1.6893100e+00 9.5499300e-02 1.0468500e-02
1.6823600e+00 9.3642922e-02 1.6232800e-02
1.6748500e+00 9.2276022e-02 2.2118367e-02
1.6667800e+00 9.1398600e-02 2.8125200e-02
1.6581500e+00 9.1010656e-02 3.4253300e-02
1.6489600e+00 9.1112189e-02 4.0502667e-02
1.6392100e+00 9.1703200e-02 4.6873300e-02
1.6392100e+00 9.1703200e-02 4.6873300e-02
1.6297033e+00 9.3669322e-02 5.4156711e-02
1.6198100e+00 9.5154222e-02 6.1620844e-02
1.6095300e+00 9.6157900e-02 6.9265700e-02
1.5988633e+00 9.6680356e-02 7.7091278e-02
1.5878100e+00 9.6721589e-02 8.5097578e-02
1.5763700e+00 9.6281600e-02 9.3284600e-02
1.5763700e+00 9.6281600e-02 9.3284600e-02
1.5650011e+00 9.0338822e-02 9.3083267e-02
1.5527411e+00 8.4928356e-02 9.0008167e-02
1.5395900e+00 8.0050200e-02 8.4059300e-02
1.5255478e+00 7.5704356e-02 7.5236667e-02
1.5106144e+00 7.1890822e-02 6.3540267e-02
1.4947900e+00 6.8609600e-02 4.8970100e-02
1.4947900e+00 6.8609600e-02 4.8970100e-02
1.4799944e+00 6.7465911e-02 3.7665511e-02
1.4660278e+00 6.6223611e-02 2.7931578e-02
1.4528900e+00 6.4882700e-02 1.9768300e-02
1.4405811e+00 6.3443178e-02 1.3175678e-02
1.4291011e+00 6.1905044e-02 8.1537111e-03
1.4184500e+00 6.0268300e-02 4.7024000e-03
1.0313800e+00 9.5674300e-02 -3.5449300e-03
1.0428956e+00 8.7148100e-02 -2.0820400e-03
1.0564356e+00 7.9357667e-02 -1.5694967e-03
1.0720000e+00 7.2303000e-02 -2.0073000e-03
1.0895889e+00 6.5984100e-02 -3.3954500e-03
1.1092022e+00 6.0400967e-02 -5.7339467e-03
1.1308400e+00 5.5553600e-02 -9.0227900e-03
1.1308400e+00 5.5553600e-02 -9.0227900e-03
1.1505411e+00 5.7037622e-02 -9.3803000e-03
1.1692344e+00 5.9916222e-02 -9.1068333e-03
1.1869200e+00 6.4189400e-02 -8.2023900e-03
1.2035978e+00 6.9857156e-02 -6.6669700e-03
1.2192678e+00 7.6919489e-02 -4.5005733e-03
1.2339300e+00 8.5376400e-02 -1.7032000e-03
1.2339300e+00 8.5376400e-02 -1.7032000e-03
1.2477922e+00 9.3582000e-02 1.5643444e-04
1.2623322e+00 1.0016253e-01 2.0141211e-03
1.2775500e+00 1.0511800e-01 3.8698600e-03
1.2934456e+00 1.0844840e-01 5.7236511e-03
1.3100189e+00 1.1015373e-01 7.5754944e-03
1.3272700e+00 1.1023400e-01 9.4253900e-03
1.3272700e+00 1.1023400e-01 9.4253900e-03
1.3460778e+00 1.0391713e-01 9.9220556e-03
1.3634411e+00 9.6795967e-02 9.9051889e-03
1.3793600e+00 8.8870500e-02 9.3747900e-03
1.3938344e+00 8.0140733e-02 8.3308589e-03
1.4068644e+00 7.0606667e-02 6.7733956e-03
1.4184500e+00 6.0268300e-02 4.7024000e-03
8.4060300e-01 3.0663900e-01 -5.1806300e-03