# vtk DataFile Version 2.0
test
ASCII
DATASET POLYDATA
POINTS 4361 float
3.5665502e+00 6.5492340e+00 1.1864391e+01
3.6655286e+00 6.6188348e+00 1.1732290e+01
3.7670309e+00 6.6885435e+00 1.1602371e+01
3.8710570e+00 6.7583599e+00 1.1474634e+01
3.9776071e+00 6.8282840e+00 1.1349078e+01
4.0866810e+00 6.8983159e+00 1.1225705e+01
4.1982788e+00 6.9684556e+00 1.1104514e+01
4.1982788e+00 6.9684556e+00 1.1104514e+01
4.3155589e+00 7.0404011e+00 1.0987484e+01
4.4398587e+00 7.1116387e+00 1.0880296e+01
4.5711785e+00 7.1821683e+00 1.0782951e+01
4.7095180e+00 7.2519900e+00 1.0695448e+01
4.8548774e+00 7.3211036e+00 1.0617788e+01
5.0072566e+00 7.3895093e+00 1.0549969e+01
5.0072566e+00 7.3895093e+00 1.0549969e+01
5.1684002e+00 7.4548280e+00 1.0501123e+01
5.3321207e+00 7.5165321e+00 1.0465183e+01
5.4984180e+00 7.5746218e+00 1.0442151e+01
5.6672922e+00 7.6290971e+00 1.0432026e+01
5.8387432e+00 7.6799578e+00 1.0434808e+01
6.0127711e+00 7.7272041e+00 1.0450497e+01
6.0127711e+00 7.7272041e+00 1.0450497e+01
6.1853304e+00 7.7699115e+00 1.0473684e+01
6.3578581e+00 7.8094372e+00 1.0500603e+01
6.5303542e+00 7.8457812e+00 1.0531252e+01
6.7028186e+00 7.8789434e+00 1.0565633e+01
6.8752514e+00 7.9089239e+00 1.0603744e+01
7.0476526e+00 7.9357226e+00 1.0645586e+01
7.0476526e+00 7.9357226e+00 1.0645586e+01
7.2204063e+00 7.9600016e+00 1.0687453e+01
7.3941305e+00 7.9816406e+00 1.0725335e+01
7.5688252e+00 8.0006395e+00 1.0759234e+01
7.7444904e+00 8.0169983e+00 1.0789150e+01
7.9211261e+00 8.0307170e+00 1.0815081e+01
8.0987323e+00 8.0417956e+00 1.0837029e+01
8.0987323e+00 8.0417956e+00 1.0837029e+01
8.2790726e+00 8.0499888e+00 1.0850199e+01
8.4578300e+00 8.0553249e+00 1.0850022e+01
8.6350044e+00 8.0578039e+00 1.0836499e+01
8.8105958e+00 8.0574259e+00 1.0809629e+01
8.9846043e+00 8.0541907e+00 1.0769413e+01
9.1570298e+00 8.0480985e+00 1.0715850e+01
9.1570298e+00 8.0480985e+00 1.0715850e+01
9.3220442e+00 8.0390784e+00 1.0643546e+01
9.4799202e+00 8.0286026e+00 1.0560652e+01
9.6306580e+00 8.0166712e+00 1.0467170e+01
9.7742576e+00 8.0032842e+00 1.0363098e+01
9.9107189e+00 7.9884415e+00 1.0248437e+01
1.0040042e+01 7.9721431e+00 1.0123187e+01
1.0040042e+01 7.9721431e+00 1.0123187e+01
1.0161853e+01 7.9574843e+00 9.9926586e+00
1.0281165e+01 7.9422781e+00 9.8600473e+00
1.0397976e+01 7.9265246e+00 9.7253533e+00
1.0512287e+01 7.9102237e+00 9.5885766e+00
1.0624097e+01 7.8933755e+00 9.4497171e+00
1.0733408e+01 7.8759799e+00 9.3087748e+00
1.0733408e+01 7.8759799e+00 9.3087748e+00
1.0636872e+01 7.8113278e+00 9.1661811e+00
1.0541462e+01 7.7458130e+00 9.0232500e+00
1.0447177e+01 7.6794354e+00 8.8799815e+00
1.0354018e+01 7.6121950e+00 8.7363755e+00
1.0261984e+01 7.5440919e+00 8.5924321e+00
1.0171075e+01 7.4751260e+00 8.4481512e+00
1.0171075e+01 7.4751260e+00 8.4481512e+00
1.0082501e+01 7.4071671e+00 8.3016264e+00
9.9985613e+00 7.3377886e+00 8.1534337e+00
9.9192555e+00 7.2669905e+00 8.0035729e+00
9.8445837e+00 7.1947729e+00 7.8520441e+00
9.7745460e+00 7.1211357e+00 7.6988473e+00
9.7091422e+00 7.0460790e+00 7.5439826e+00
9.7091422e+00 7.0460790e+00 7.5439826e+00
9.6508357e+00 6.9689326e+00 7.3865487e+00
9.6016112e+00 6.8897171e+00 7.2281941e+00
9.5614685e+00 6.8084326e+00 7.0689186e+00
9.5304078e+00 6.7250789e+00 6.9087222e+00
9.5084290e+00 6.6396561e+00 6.7476051e+00
9.4955321e+00 6.5521642e+00 6.5855671e+00
9.4955321e+00 6.5521642e+00 6.5855671e+00
9.4948047e+00 6.4627039e+00 6.4239665e+00
9.5042099e+00 6.3721563e+00 6.2645727e+00
9.5237478e+00 6.2805213e+00 6.1073857e+00
9.5534182e+00 6.1877989e+00 5.9524055e+00
9.5932213e+00 6.0939892e+00 5.7996321e+00
9.6431569e+00 5.9990921e+00 5.6490654e+00
9.6431569e+00 5.9990921e+00 5.6490654e+00
9.7012542e+00 5.9039645e+00 5.5025251e+00
9.7648240e+00 5.8083425e+00 5.3591502e+00
9.8338663e+00 5.7122260e+00 5.2189406e+00
9.9083810e+00 5.6156149e+00 5.0818965e+00
9.9883682e+00 5.5185093e+00 4.9480177e+00
1.0073828e+01 5.4209093e+00 4.8173043e+00
1.0073828e+01 5.4209093e+00 4.8173043e+00
1.0162205e+01 5.3229983e+00 4.6892914e+00
1.0252119e+01 5.2240767e+00 4.5632488e+00
1.0343572e+01 5.1241445e+00 4.4391766e+00
1.0436562e+01 5.0232017e+00 4.3170748e+00
1.0531090e+01 4.9212483e+00 4.1969433e+00
1.0627156e+01 4.8182842e+00 4.0787822e+00
1.0627156e+01 4.8182842e+00 4.0787822e+00
1.0723085e+01 4.7136532e+00 3.9620171e+00
1.0817348e+01 4.6068625e+00 3.8459576e+00
1.0909945e+01 4.4979119e+00 3.7306036e+00
1.1000876e+01 4.3868014e+00 3.6159551e+00
1.1090141e+01 4.2735312e+00 3.5020122e+00
1.1177739e+01 4.1581011e+00 3.3887747e+00
1.1177739e+01 4.1581011e+00 3.3887747e+00
1.1262132e+01 4.0398434e+00 3.2754578e+00
1.1340796e+01 3.9184203e+00 3.1621451e+00
1.1413733e+01 3.7938317e+00 3.0488368e+00
1.1480941e+01 3.6660777e+00 2.9355328e+00
1.1542422e+01 3.5351583e+00 2.8222330e+00
1.1598175e+01 3.4010734e+00 2.7089376e+00
1.1598175e+01 3.4010734e+00 2.7089376e+00
1.1645773e+01 3.2629455e+00 2.5956696e+00
1.1683340e+01 3.1226203e+00 2.4832114e+00
1.1710877e+01 2.9800980e+00 2.3715629e+00
1.1728382e+01 2.8353784e+00 2.2607242e+00
1.1735856e+01 2.6884617e+00 2.1506953e+00
1.1733300e+01 2.5393478e+00 2.0414761e+00
1.1733300e+01 2.5393478e+00 2.0414761e+00
1.1718322e+01 2.3900847e+00 1.9337445e+00
1.1694366e+01 2.2415353e+00 1.8282055e+00
1.1661430e+01 2.0936995e+00 1.7248592e+00
1.1619515e+01 1.9465773e+00 1.6237056e+00
1.1568621e+01 1.8001689e+00 1.5247445e+00
1.1508747e+01 1.6544740e+00 1.4279761e+00
1.1508747e+01 1.6544740e+00 1.4279761e+00
1.1441810e+01 1.5108920e+00 1.3338438e+00
1.1370403e+01 1.3686235e+00 1.2415300e+00
1.1294524e+01 1.2276686e+00 1.1510348e+00
1.1214175e+01 1.0880274e+00 1.0623582e+00
1.1129355e+01 9.4969968e-01 9.7550009e-01
1.1040065e+01 8.1268559e-01 8.9046057e-01
1.1040065e+01 8.1268559e-01 8.9046057e-01
1.0948766e+01 6.7636625e-01 8.0685163e-01
1.0856293e+01 5.4050456e-01 7.2382392e-01
1.0762646e+01 4.0510053e-01 6.4137745e-01
1.0667826e+01 2.7015415e-01 5.5951221e-01
1.0571832e+01 1.3566542e-01 4.7822821e-01
1.0474665e+01 1.6343500e-03 3.9752544e-01
1.4532820e+00 5.3314301e+00 1.1663069e+01
1.4283740e+00 5.2940913e+00 1.1476203e+01
1.4054566e+00 5.2556711e+00 1.1289363e+01
1.3845298e+00 5.2161695e+00 1.1102550e+01
1.3655937e+00 5.1755865e+00 1.0915764e+01
1.3486481e+00 5.1339221e+00 1.0729005e+01
1.3336932e+00 5.0911763e+00 1.0542272e+01
1.3336932e+00 5.0911763e+00 1.0542272e+01
1.3238430e+00 5.0490790e+00 1.0354442e+01
1.3217602e+00 5.0050413e+00 1.0167548e+01
1.3274446e+00 4.9590631e+00 9.9815902e+00
1.3408963e+00 4.9111444e+00 9.7965689e+00
1.3621153e+00 4.8612854e+00 9.6124840e+00
1.3911016e+00 4.8094859e+00 9.4293355e+00
1.3911016e+00 4.8094859e+00 9.4293355e+00
1.4331375e+00 4.7543816e+00 9.2486195e+00
1.4865658e+00 4.6968696e+00 9.0736686e+00
1.5513866e+00 4.6369498e+00 8.9044828e+00
1.6275997e+00 4.5746222e+00 8.7410620e+00
1.7152053e+00 4.5098868e+00 8.5834063e+00
1.8142032e+00 4.4427437e+00 8.4315156e+00
1.8142032e+00 4.4427437e+00 8.4315156e+00
1.9245922e+00 4.3736851e+00 8.2894542e+00
2.0416353e+00 4.3033259e+00 8.1549459e+00
2.1653326e+00 4.2316661e+00 8.0279907e+00
2.2956840e+00 4.1587057e+00 7.9085886e+00
2.4326896e+00 4.0844448e+00 7.7967396e+00
2.5763493e+00 4.0088833e+00 7.6924438e+00
2.5763493e+00 4.0088833e+00 7.6924438e+00
2.7218426e+00 3.9326188e+00 7.5930828e+00
2.8683922e+00 3.8548201e+00 7.4967630e+00
3.0159982e+00 3.7754874e+00 7.4034846e+00
3.1646606e+00 3.6946205e+00 7.3132473e+00
3.3143794e+00 3.6122195e+00 7.2260514e+00
3.4651545e+00 3.5282844e+00 7.1418967e+00
3.4651545e+00 3.5282844e+00 7.1418967e+00
3.6157900e+00 3.4423592e+00 7.0593952e+00
3.7640976e+00 3.3536418e+00 6.9759982e+00
3.9100772e+00 3.2621322e+00 6.8917058e+00
4.0537290e+00 3.1678302e+00 6.8065178e+00
4.1950529e+00 3.0707360e+00 6.7204344e+00
4.3340489e+00 2.9708495e+00 6.6334555e+00
4.3340489e+00 2.9708495e+00 6.6334555e+00
4.4692828e+00 2.8672025e+00 6.5432320e+00
4.5967468e+00 2.7596370e+00 6.4485457e+00
4.7164408e+00 2.6481530e+00 6.3493968e+00
4.8283648e+00 2.5327506e+00 6.2457851e+00
4.9325189e+00 2.4134296e+00 6.1377108e+00
5.0289030e+00 2.2901902e+00 6.0251738e+00
5.0289030e+00 2.2901902e+00 6.0251738e+00
5.1118015e+00 2.1623793e+00 5.9057998e+00
5.1819477e+00 2.0334056e+00 5.7825355e+00
5.2393414e+00 1.9032691e+00 5.6553810e+00
5.2839827e+00 1.7719698e+00 5.5243363e+00
5.3158716e+00 1.6395077e+00 5.3894014e+00
5.3350081e+00 1.5058827e+00 5.2505763e+00
5.3350081e+00 1.5058827e+00 5.2505763e+00
5.3414361e+00 1.3743912e+00 5.1099980e+00
5.3400362e+00 1.2442141e+00 4.9688993e+00
5.3308084e+00 1.1153515e+00 4.8272802e+00
5.3137527e+00 9.8780334e-01 4.6851407e+00
5.2888690e+00 8.6156966e-01 4.5424807e+00
5.2561575e+00 7.3665043e-01 4.3993002e+00
5.2561575e+00 7.3665043e-01 4.3993002e+00
5.2196443e+00 6.1262703e-01 4.2571106e+00
5.1810860e+00 4.8913037e-01 4.1150187e+00
5.1404824e+00 3.6616046e-01 3.9730245e+00
5.0978336e+00 2.4371730e-01 3.8311279e+00
5.0531396e+00 1.2180089e-01 3.6893291e+00
5.0064004e+00 4.1122000e-04 3.5476280e+00
2.3531000e-01 5.1028914e+00 1.3916895e+01
2.8935001e-01 5.2065396e+00 1.3759050e+01
3.5660270e-01 5.3111598e+00 1.3611275e+01
4.3706807e-01 5.4167522e+00 1.3473568e+01
5.3074611e-01 5.5233167e+00 1.3345929e+01
6.3763684e-01 5.6308532e+00 1.3228360e+01
7.5774024e-01 5.7393619e+00 1.3120859e+01
7.5774024e-01 5.7393619e+00 1.3120859e+01
9.1182701e-01 5.8407017e+00 1.3057465e+01
1.0728366e+00 5.9329565e+00 1.3009735e+01
1.2407690e+00 6.0161264e+00 1.2977670e+01
1.4156242e+00 6.0902113e+00 1.2961269e+01
1.5974022e+00 6.1552113e+00 1.2960532e+01
1.7861030e+00 6.2111264e+00 1.2975461e+01
1.7861030e+00 6.2111264e+00 1.2975461e+01
1.9762701e+00 6.2619839e+00 1.2989606e+01
2.1635140e+00 6.3085423e+00 1.2984991e+01
2.3478348e+00 6.3508016e+00 1.2961616e+01
2.5292325e+00 6.3887620e+00 1.2919481e+01
2.7077070e+00 6.4224232e+00 1.2858586e+01
2.8832585e+00 6.4517855e+00 1.2778931e+01
2.8832585e+00 6.4517855e+00 1.2778931e+01
3.0287479e+00 6.4749656e+00 1.2652190e+01
3.1615943e+00 6.4953702e+00 1.2515176e+01
3.2817977e+00 6.5129993e+00 1.2367889e+01
3.3893582e+00 6.5278530e+00 1.2210329e+01
[...]
POINT_DATA 4361
VECTORS U float
2.6964800e-01 8.6385500e-02 -2.8667900e-03
2.7279078e-01 8.4490256e-02 -1.2736889e-03
2.7582211e-01 8.2380022e-02 1.8198778e-04
2.7874200e-01 8.0054800e-02 1.5002400e-03
2.8155044e-01 7.7514589e-02 2.6810678e-03
2.8424744e-01 7.4759389e-02 3.7244711e-03
2.8683300e-01 7.1789200e-02 4.6304500e-03
2.8683300e-01 7.1789200e-02 4.6304500e-03
2.8892322e-01 6.9426978e-02 5.4758122e-03
2.9084289e-01 6.6824511e-02 6.0380722e-03
2.9259200e-01 6.3981800e-02 6.3172300e-03
2.9417056e-01 6.0898844e-02 6.3132856e-03
2.9557856e-01 5.7575644e-02 6.0262389e-03
2.9681600e-01 5.4012200e-02 5.4560900e-03
2.9681600e-01 5.4012200e-02 5.4560900e-03
2.9831889e-01 5.0062256e-02 5.3113089e-03
2.9965222e-01 4.6360789e-02 5.3008022e-03
3.0081600e-01 4.2907800e-02 5.4245700e-03
3.0181022e-01 3.9703289e-02 5.6826122e-03
3.0263489e-01 3.6747256e-02 6.0749289e-03
3.0329000e-01 3.4039700e-02 6.6015200e-03
3.0329000e-01 3.4039700e-02 6.6015200e-03
3.0390033e-01 3.1399889e-02 6.3609044e-03
3.0442367e-01 2.8970322e-02 6.1756444e-03
3.0486000e-01 2.6751000e-02 6.0457400e-03
3.0520933e-01 2.4741922e-02 5.9711911e-03
3.0547167e-01 2.2943089e-02 5.9519978e-03
3.0564700e-01 2.1354500e-02 5.9881600e-03
3.0564700e-01 2.1354500e-02 5.9881600e-03
3.0572422e-01 1.9869200e-02 6.2088322e-03
3.0577089e-01 1.8500167e-02 6.4979056e-03
3.0578700e-01 1.7247400e-02 6.8553800e-03
3.0577256e-01 1.6110900e-02 7.2812556e-03
3.0572756e-01 1.5090667e-02 7.7755322e-03
3.0565200e-01 1.4186700e-02 8.3382100e-03
3.0565200e-01 1.4186700e-02 8.3382100e-03
3.0560444e-01 1.3254133e-02 8.8451133e-03
3.0553878e-01 1.2478300e-02 9.1995000e-03
3.0545500e-01 1.1859200e-02 9.4013700e-03
3.0535311e-01 1.1396833e-02 9.4507233e-03
3.0523311e-01 1.1091200e-02 9.3475600e-03
3.0509500e-01 1.0942300e-02 9.0918800e-03
3.0509500e-01 1.0942300e-02 9.0918800e-03
3.0503844e-01 1.1020722e-02 8.9990589e-03
3.0467378e-01 1.1272456e-02 8.5709622e-03
3.0400100e-01 1.1697500e-02 7.8075900e-03
3.0302011e-01 1.2295856e-02 6.7089422e-03
3.0173111e-01 1.3067522e-02 5.2750189e-03
3.0013400e-01 1.4012500e-02 3.5058200e-03
3.0013400e-01 1.4012500e-02 3.5058200e-03
2.9733422e-01 1.7030333e-02 6.3348333e-04
2.9467356e-01 1.9800433e-02 -2.0037267e-03
2.9215200e-01 2.2322800e-02 -4.4058100e-03
2.8976956e-01 2.4597433e-02 -6.5727667e-03
2.8752622e-01 2.6624333e-02 -8.5045967e-03
2.8542200e-01 2.8403500e-02 -1.0201300e-02
2.8542200e-01 2.8403500e-02 -1.0201300e-02
2.8374811e-01 2.7399344e-02 -8.5550789e-03
2.8185711e-01 2.6047044e-02 -6.6371289e-03
2.7974900e-01 2.4346600e-02 -4.4474500e-03
2.7742378e-01 2.2298011e-02 -1.9860422e-03
2.7488144e-01 1.9901278e-02 7.4709444e-04
2.7212200e-01 1.7156400e-02 3.7519600e-03
2.7212200e-01 1.7156400e-02 3.7519600e-03
2.6918144e-01 1.6469444e-02 5.8491444e-03
2.6610644e-01 1.5921578e-02 7.8371778e-03
2.6289700e-01 1.5512800e-02 9.7160600e-03
2.5955311e-01 1.5243111e-02 1.1485791e-02
2.5607478e-01 1.5112511e-02 1.3146371e-02
2.5246200e-01 1.5121000e-02 1.4697800e-02
2.5246200e-01 1.5121000e-02 1.4697800e-02
2.4887278e-01 1.5325378e-02 1.5961444e-02
2.4506544e-01 1.5500744e-02 1.7052944e-02
2.4104000e-01 1.5647100e-02 1.7972300e-02
2.3679644e-01 1.5764444e-02 1.8719511e-02
2.3233478e-01 1.5852778e-02 1.9294578e-02
2.2765500e-01 1.5912100e-02 1.9697500e-02
2.2765500e-01 1.5912100e-02 1.9697500e-02
2.2276956e-01 1.5913489e-02 1.9798311e-02
2.1813756e-01 1.5805056e-02 1.9719011e-02
2.1375900e-01 1.5586800e-02 1.9459600e-02
2.0963389e-01 1.5258722e-02 1.9020078e-02
2.0576222e-01 1.4820822e-02 1.8400444e-02
2.0214400e-01 1.4273100e-02 1.7600700e-02
2.0214400e-01 1.4273100e-02 1.7600700e-02
1.9854367e-01 1.3597549e-02 1.6749978e-02
1.9504400e-01 1.2820682e-02 1.5887211e-02
1.9164500e-01 1.1942500e-02 1.5012400e-02
1.8834667e-01 1.0963002e-02 1.4125544e-02
1.8514900e-01 9.8821889e-03 1.3226644e-02
1.8205200e-01 8.7000600e-03 1.2315700e-02
1.8205200e-01 8.7000600e-03 1.2315700e-02
1.7900578e-01 7.6295678e-03 1.1294916e-02
1.7598344e-01 6.5567744e-03 1.0248672e-02
1.7298500e-01 5.4816800e-03 9.1769700e-03
1.7001044e-01 4.4042844e-03 8.0798089e-03
1.6705978e-01 3.3245878e-03 6.9571889e-03
1.6413300e-01 2.2425900e-03 5.8091100e-03
1.6413300e-01 2.2425900e-03 5.8091100e-03
1.6107344e-01 9.4026222e-04 4.7848723e-03
1.5786944e-01 -4.1798111e-04 3.7246957e-03
1.5452100e-01 -1.8321400e-03 2.6285800e-03
1.5102811e-01 -3.3022144e-03 1.4965253e-03
1.4739078e-01 -4.8282044e-03 3.2853167e-04
1.4360900e-01 -6.4101100e-03 -8.7540100e-04
1.4360900e-01 -6.4101100e-03 -8.7540100e-04
1.3949567e-01 -7.9865500e-03 -2.2118828e-03
1.3503533e-01 -9.5420800e-03 -3.5149058e-03
1.3022800e-01 -1.1076700e-02 -4.7844700e-03
1.2507367e-01 -1.2590410e-02 -6.0205754e-03
1.1957233e-01 -1.4083210e-02 -7.2232221e-03
1.1372400e-01 -1.5555100e-02 -8.3924100e-03
1.1372400e-01 -1.5555100e-02 -8.3924100e-03
1.0787472e-01 -1.7036222e-02 -9.0949167e-03
1.0188239e-01 -1.8250456e-02 -9.6277467e-03
9.5747000e-02 -1.9197800e-02 -9.9909000e-03
8.9468556e-02 -1.9878256e-02 -1.0184377e-02
8.3047056e-02 -2.0291822e-02 -1.0208177e-02
7.6482500e-02 -2.0438500e-02 -1.0062300e-02
7.6482500e-02 -2.0438500e-02 -1.0062300e-02
6.9879444e-02 -1.9792200e-02 -1.0198238e-02
6.3601078e-02 -1.8940767e-02 -1.0237271e-02
5.7647400e-02 -1.7884200e-02 -1.0179400e-02
5.2018411e-02 -1.6622500e-02 -1.0024624e-02
4.6714111e-02 -1.5155667e-02 -9.7729444e-03
4.1734500e-02 -1.3483700e-02 -9.4243600e-03
4.1734500e-02 -1.3483700e-02 -9.4243600e-03
3.6765711e-02 -1.1689880e-02 -8.9801000e-03
3.2095178e-02 -9.9431067e-03 -8.4502733e-03
2.7722900e-02 -8.2433800e-03 -7.8348800e-03
2.3648878e-02 -6.5907000e-03 -7.1339200e-03
1.9873111e-02 -4.9850667e-03 -6.3473933e-03
1.6395600e-02 -3.4264800e-03 -5.4753000e-03
1.6395600e-02 -3.4264800e-03 -5.4753000e-03
1.3424978e-02 -2.3714033e-03 -4.3793122e-03
1.0623158e-02 -1.4009687e-03 -3.2869256e-03
7.9901400e-03 -5.1517600e-04 -2.1981400e-03
5.5259244e-03 2.8597467e-04 -1.1129556e-03
3.2305111e-03 1.0024833e-03 -3.1372222e-05
1.1039000e-03 1.6343500e-03 1.0466100e-03
2.3516200e-01 1.1991800e-01 1.8514100e-02
2.3284089e-01 1.1881044e-01 1.9168367e-02
2.3021022e-01 1.1720778e-01 1.9930100e-02
2.2727000e-01 1.1511000e-01 2.0799300e-02
2.2402022e-01 1.1251711e-01 2.1775967e-02
2.2046089e-01 1.0942911e-01 2.2860100e-02
2.1659200e-01 1.0584600e-01 2.4051700e-02
2.1659200e-01 1.0584600e-01 2.4051700e-02
2.1333567e-01 1.0411589e-01 2.4748689e-02
2.0988500e-01 1.0229389e-01 2.5326989e-02
2.0624000e-01 1.0038000e-01 2.5786600e-02
2.0240067e-01 9.8374222e-02 2.6127522e-02
1.9836700e-01 9.6276556e-02 2.6349756e-02
1.9413900e-01 9.4087000e-02 2.6453300e-02
1.9413900e-01 9.4087000e-02 2.6453300e-02
1.9021522e-01 9.1392867e-02 2.6541489e-02
1.8604856e-01 8.8483800e-02 2.6347322e-02
1.8163900e-01 8.5359800e-02 2.5870800e-02
1.7698656e-01 8.2020867e-02 2.5111922e-02
1.7209122e-01 7.8467000e-02 2.4070689e-02
1.6695300e-01 7.4698200e-02 2.2747100e-02
1.6695300e-01 7.4698200e-02 2.2747100e-02
1.6231267e-01 7.0571156e-02 2.1275733e-02
1.5821533e-01 6.6442022e-02 2.0211867e-02
1.5466100e-01 6.2310800e-02 1.9555500e-02
1.5164967e-01 5.8177489e-02 1.9306633e-02
1.4918133e-01 5.4042089e-02 1.9465267e-02
1.4725600e-01 4.9904600e-02 2.0031400e-02
1.4725600e-01 4.9904600e-02 2.0031400e-02
1.4483711e-01 4.6055133e-02 2.0039089e-02
1.4238411e-01 4.2319267e-02 1.9935322e-02
1.3989700e-01 3.8697000e-02 1.9720100e-02
1.3737578e-01 3.5188333e-02 1.9393422e-02
1.3482044e-01 3.1793267e-02 1.8955289e-02
1.3223100e-01 2.8511800e-02 1.8405700e-02
1.3223100e-01 2.8511800e-02 1.8405700e-02
1.3000744e-01 2.5287133e-02 1.8428511e-02
1.2766844e-01 2.2165033e-02 1.8310011e-02
1.2521400e-01 1.9145500e-02 1.8050200e-02
1.2264411e-01 1.6228533e-02 1.7649078e-02
1.1995878e-01 1.3414133e-02 1.7106644e-02
1.1715800e-01 1.0702300e-02 1.6422900e-02
1.1715800e-01 1.0702300e-02 1.6422900e-02
1.1414513e-01 8.1900956e-03 1.5373378e-02
1.1078680e-01 5.7782789e-03 1.4199111e-02
1.0708300e-01 3.4668500e-03 1.2900100e-02
1.0303373e-01 1.2558089e-03 1.1476344e-02
9.8639000e-02 -8.5484444e-04 9.9278444e-03
9.3898800e-02 -2.8651100e-03 8.2546000e-03
9.3898800e-02 -2.8651100e-03 8.2546000e-03
8.8090611e-02 -4.8318289e-03 6.4622841e-03
8.2091544e-02 -6.4041322e-03 4.8470441e-03
7.5901600e-02 -7.5820200e-03 3.4088800e-03
6.9520778e-02 -8.3654922e-03 2.1477918e-03
6.2949078e-02 -8.7545489e-03 1.0637794e-03
5.6186500e-02 -8.7491900e-03 1.5684300e-04
5.6186500e-02 -8.7491900e-03 1.5684300e-04
4.9809156e-02 -8.0003411e-03 -7.9991722e-04
4.3727456e-02 -7.1299544e-03 -1.5682282e-03
3.7941400e-02 -6.1380300e-03 -2.1480900e-03
3.2450989e-02 -5.0245678e-03 -2.5395026e-03
2.7256222e-02 -3.7895678e-03 -2.7424659e-03
2.2357100e-02 -2.4330300e-03 -2.7569800e-03
2.2357100e-02 -2.4330300e-03 -2.7569800e-03
1.8066101e-02 -1.7190739e-03 -2.2078111e-03
1.4021067e-02 -1.1010836e-03 -1.6223444e-03
1.0222000e-02 -5.7905900e-04 -1.0005800e-03
6.6688984e-03 -1.5300022e-04 -3.4251778e-04
3.3617628e-03 1.7709278e-04 3.5184222e-04
3.0059300e-04 4.1122000e-04 1.0825000e-03
2.3531000e-01 1.3318700e-01 -2.8881900e-03
2.3865256e-01 1.3376100e-01 -1.3455111e-03
2.4184489e-01 1.3387167e-01 1.2255889e-04
2.4488700e-01 1.3351900e-01 1.5160200e-03
2.4777889e-01 1.3270300e-01 2.8348722e-03
2.5052056e-01 1.3142367e-01 4.0791156e-03
2.5311200e-01 1.2968100e-01 5.2487500e-03
2.5311200e-01 1.2968100e-01 5.2487500e-03
2.5540511e-01 1.2655678e-01 5.9154222e-03
2.5753411e-01 1.2313611e-01 6.1672622e-03
2.5949900e-01 1.1941900e-01 6.0042700e-03
2.6129978e-01 1.1540544e-01 5.4264456e-03
2.6293644e-01 1.1109544e-01 4.4337889e-03
2.6440900e-01 1.0648900e-01 3.0263000e-03
2.6440900e-01 1.0648900e-01 3.0263000e-03
2.6579433e-01 1.0158431e-01 1.8031233e-03
2.6688800e-01 9.7242878e-02 6.7297200e-04
2.6769000e-01 9.3464700e-02 -3.6415400e-04
2.6820033e-01 9.0249778e-02 -1.3082547e-03
2.6841900e-01 8.7598111e-02 -2.1593300e-03
2.6834600e-01 8.5509700e-02 -2.9173800e-03
2.6834600e-01 8.5509700e-02 -2.9173800e-03
2.6799300e-01 8.5237778e-02 -3.3505622e-03
2.6786800e-01 8.5133011e-02 -3.6070989e-03
2.6797100e-01 8.5195400e-02 -3.6869900e-03
2.6830200e-01 8.5424944e-02 -3.5902356e-03
2.6886100e-01 8.5821644e-02 -3.3168356e-03
2.6964800e-01 8.6385500e-02 -2.8667900e-03
2.2622000e-01 1.2902100e-01 7.3225900e-03
2.2842367e-01 1.2847578e-01 1.0061872e-02
2.3034200e-01 1.2754178e-01 1.2451542e-02
2.3197500e-01 1.2621900e-01 1.4491600e-02
2.3332267e-01 1.2450744e-01 1.6182046e-02
2.3438500e-01 1.2240711e-01 1.7522879e-02
2.3516200e-01 1.1991800e-01 1.8514100e-02
2.8542200e-01 2.8403500e-02 -1.0201300e-02
2.8346422e-01 2.5197844e-02 -9.8194078e-03
2.8146656e-01 2.2155178e-02 -9.3700178e-03
2.7942900e-01 1.9275500e-02 -8.8531300e-03
2.7735156e-01 1.6558811e-02 -8.2687444e-03
2.7523422e-01 1.4005111e-02 -7.6168611e-03
2.7307700e-01 1.1614400e-02 -6.8974800e-03
2.7307700e-01 1.1614400e-02 -6.8974800e-03
2.7189556e-01 1.0131434e-02 -6.8228356e-03
2.7038722e-01 8.7304378e-03 -6.4359356e-03
2.6855200e-01 7.4114100e-03 -5.7367800e-03
2.6638989e-01 6.1743511e-03 -4.7253689e-03
2.6390089e-01 5.0192611e-03 -3.4017022e-03
2.6108500e-01 3.9461400e-03 -1.7657800e-03
2.6108500e-01 3.9461400e-03 -1.7657800e-03
2.5801378e-01 2.6855567e-03 -3.8397111e-04
2.5483111e-01 1.5976047e-03 9.1057889e-04
2.5153700e-01 6.8228400e-04 2.1178700e-03
2.4813144e-01 -6.0405333e-05 3.2379022e-03
2.4461444e-01 -6.3046333e-04 4.2706756e-03
2.4098600e-01 -1.0278900e-03 5.2161900e-03
2.4098600e-01 -1.0278900e-03 5.2161900e-03
2.3563422e-01 -1.4909167e-03 6.2260300e-03
2.3011189e-01 -1.8513700e-03 6.9813633e-03
2.2441900e-01 -2.1092500e-03 7.4821900e-03
2.1855556e-01 -2.2645567e-03 7.7285100e-03
2.1252156e-01 -2.3172900e-03 7.7203233e-03
2.0631700e-01 -2.2674500e-03 7.4576300e-03
2.0631700e-01 -2.2674500e-03 7.4576300e-03
2.0107889e-01 -1.8107794e-03 7.2129333e-03
1.9586422e-01 -1.2349604e-03 6.8866267e-03
1.9067300e-01 -5.3999300e-04 6.4787100e-03
1.8550522e-01 2.7412289e-04 5.9891833e-03
1.8036089e-01 1.2073872e-03 5.4180467e-03
1.7524000e-01 2.2598000e-03 4.7653000e-03
1.7524000e-01 2.2598000e-03 4.7653000e-03
1.7005733e-01 3.1103333e-03 3.8934601e-03
1.6479333e-01 4.0491367e-03 3.0307034e-03
1.5944800e-01 5.0762100e-03 2.1770300e-03
1.5402133e-01 6.1915533e-03 1.3324398e-03
1.4851333e-01 7.3951667e-03 4.9693278e-04
1.4292400e-01 8.6870500e-03 -3.2949100e-04
1.4292400e-01 8.6870500e-03 -3.2949100e-04
1.3785111e-01 9.7654167e-03 -1.1242783e-03
1.3243078e-01 1.0917667e-02 -1.7699813e-03
1.2666300e-01 1.2143800e-02 -2.2666000e-03
1.2054778e-01 1.3443817e-02 -2.6141343e-03
1.1408511e-01 1.4817717e-02 -2.8125843e-03
1.0727500e-01 1.6265500e-02 -2.8619500e-03
1.0727500e-01 1.6265500e-02 -2.8619500e-03
9.9228489e-02 1.8150444e-02 -2.3280396e-03
9.1567356e-02 1.9609478e-02 -1.7595962e-03
8.4291600e-02 2.0642600e-02 -1.1566200e-03
7.7401222e-02 2.1249811e-02 -5.1911089e-04
7.0896222e-02 2.1431111e-02 1.5293111e-04
6.4776600e-02 2.1186500e-02 8.5950600e-04
6.4776600e-02 2.1186500e-02 8.5950600e-04
5.8367111e-02 2.0372900e-02 1.5123500e-03
5.2412644e-02 1.9358033e-02 2.0418380e-03
4.6913200e-02 1.8141900e-02 2.4479700e-03
4.1868778e-02 1.6724500e-02 2.7307460e-03
3.7279378e-02 1.5105833e-02 2.8901660e-03
3.3145000e-02 1.3285900e-02 2.9262300e-03
3.3145000e-02 1.3285900e-02 2.9262300e-03
2.9361189e-02 1.1627126e-02 3.0806978e-03
2.5746822e-02 1.0015816e-02 3.2388144e-03
2.2301900e-02 8.4519700e-03 3.4005800e-03
1.9026422e-02 6.9355889e-03 3.5659944e-03
1.5920389e-02 5.4666722e-03 3.7350578e-03
1.2983800e-02 4.0452200e-03 3.9077700e-03
1.2983800e-02 4.0452200e-03 3.9077700e-03
1.1234942e-02 3.4238156e-03 3.1586483e-03
9.4726822e-03 2.6703822e-03 2.4603417e-03
7.6970200e-03 1.7849200e-03 1.8128500e-03
5.9079556e-03 7.6742889e-04 1.2161733e-03
4.1054889e-03 -3.8209111e-04 6.7031167e-04
2.2896200e-03 -1.6636400e-03 1.7526500e-04
9.1425300e-01 6.8368200e-02 2.4470600e-02
9.1298567e-01 6.3505367e-02 2.6094556e-02
9.1157500e-01 5.8757067e-02 2.7676122e-02
9.1002100e-01 5.4123300e-02 2.9215300e-02
9.0832367e-01 4.9604067e-02 3.0712089e-02
9.0648300e-01 4.5199367e-02 3.2166489e-02
9.0449900e-01 4.0909200e-02 3.3578500e-02
9.0449900e-01 4.0909200e-02 3.3578500e-02
9.0276989e-01 3.8079756e-02 3.4393822e-02
9.0104189e-01 3.6044989e-02 3.5164456e-02
8.9931500e-01 3.4804900e-02 3.5890400e-02
8.9758922e-01 3.4359489e-02 3.6571656e-02
8.9586456e-01 3.4708756e-02 3.7208222e-02
8.9414100e-01 3.5852700e-02 3.7800100e-02
8.9414100e-01 3.5852700e-02 3.7800100e-02
8.9226489e-01 3.6882056e-02 3.8363178e-02
8.9008456e-01 3.8002156e-02 3.8983444e-02
8.8760000e-01 3.9213000e-02 3.9660900e-02
8.8481122e-01 4.0514589e-02 4.0395544e-02
8.8171822e-01 4.1906922e-02 4.1187378e-02
8.7832100e-01 4.3390000e-02 4.2036400e-02
8.7832100e-01 4.3390000e-02 4.2036400e-02
8.7381144e-01 4.4949967e-02 4.3386556e-02
8.6953511e-01 4.5794333e-02 4.4688756e-02
8.6549200e-01 4.5923100e-02 4.5943000e-02
8.6168211e-01 4.5336267e-02 4.7149289e-02
8.5810544e-01 4.4033833e-02 4.8307622e-02
8.5476200e-01 4.2015800e-02 4.9418000e-02
8.5476200e-01 4.2015800e-02 4.9418000e-02
8.5217667e-01 3.9754667e-02 4.9974089e-02
8.4973067e-01 3.7369467e-02 5.0167889e-02
8.4742400e-01 3.4860200e-02 4.9999400e-02
8.4525667e-01 3.2226867e-02 4.9468622e-02
8.4322867e-01 2.9469467e-02 4.8575556e-02
8.4134000e-01 2.6588000e-02 4.7320200e-02
8.4134000e-01 2.6588000e-02 4.7320200e-02
8.3727100e-01 2.8993567e-02 4.7570811e-02
8.3289567e-01 3.1267733e-02 4.7583044e-02
8.2821400e-01 3.3410500e-02 4.7356900e-02
8.2322600e-01 3.5421867e-02 4.6892378e-02
8.1793167e-01 3.7301833e-02 4.6189478e-02
8.1233100e-01 3.9050400e-02 4.5248200e-02
8.1233100e-01 3.9050400e-02 4.5248200e-02
8.0709900e-01 4.0003422e-02 4.3482678e-02
8.0230133e-01 4.0388622e-02 4.1611478e-02
7.9793800e-01 4.0206000e-02 3.9634600e-02
7.9400900e-01 3.9455556e-02 3.7552044e-02
7.9051433e-01 3.8137289e-02 3.5363811e-02
7.8745400e-01 3.6251200e-02 3.3069900e-02
7.8745400e-01 3.6251200e-02 3.3069900e-02
7.8494011e-01 3.3913933e-02 3.1738611e-02
7.8218878e-01 3.1472467e-02 3.0286944e-02
7.7920000e-01 2.8926800e-02 2.8714900e-02
7.7597378e-01 2.6276933e-02 2.7022478e-02
7.7251011e-01 2.3522867e-02 2.5209678e-02
7.6880900e-01 2.0664600e-02 2.3276500e-02
7.6880900e-01 2.0664600e-02 2.3276500e-02
7.6416289e-01 1.7772311e-02 2.0667344e-02
7.5896622e-01 1.5492044e-02 1.8255011e-02
7.5321900e-01 1.3823800e-02 1.6039500e-02
7.4692122e-01 1.2767578e-02 1.4020811e-02
7.4007289e-01 1.2323378e-02 1.2198944e-02
7.3267400e-01 1.2491200e-02 1.0573900e-02
7.3267400e-01 1.2491200e-02 1.0573900e-02
7.2491467e-01 1.4144756e-02 9.7857100e-03
7.1787933e-01 1.5817189e-02 9.1944667e-03
7.1156800e-01 1.7508500e-02 8.8001700e-03
7.0598067e-01 1.9218689e-02 8.6028200e-03
7.0111733e-01 2.0947756e-02 8.6024167e-03
6.9697800e-01 2.2695700e-02 8.7989600e-03
7.0902300e-01 3.0475600e-02 4.3187900e-03
7.0818967e-01 2.8240311e-02 4.3262600e-03
7.0688667e-01 2.6380478e-02 4.6294200e-03
7.0511400e-01 2.4896100e-02 5.2282700e-03
7.0287167e-01 2.3787178e-02 6.1228100e-03
7.0015967e-01 2.3053711e-02 7.3130400e-03
6.9697800e-01 2.2695700e-02 8.7989600e-03
8.6981100e-01 7.5391100e-02 2.2870400e-02
8.6723000e-01 7.3326667e-02 2.0984722e-02
8.6467767e-01 7.1240800e-02 1.9022622e-02
8.6215400e-01 6.9133500e-02 1.6984100e-02
8.5965900e-01 6.7004767e-02 1.4869156e-02
8.5719267e-01 6.4854600e-02 1.2677789e-02
8.5475500e-01 6.2683000e-02 1.0410000e-02
8.5475500e-01 6.2683000e-02 1.0410000e-02
8.5249722e-01 6.0093656e-02 8.2619467e-03
8.5027689e-01 5.7693222e-02 6.6937833e-03
8.4809400e-01 5.5481700e-02 5.7055100e-03
8.4594856e-01 5.3459089e-02 5.2971267e-03
8.4384056e-01 5.1625389e-02 5.4686333e-03
8.4177000e-01 4.9980600e-02 6.2200300e-03
8.4177000e-01 4.9980600e-02 6.2200300e-03
8.3838833e-01 4.9038867e-02 9.0801278e-03
8.3472267e-01 4.8329800e-02 1.2005818e-02
8.3077300e-01 4.7853400e-02 1.4997100e-02
8.2653933e-01 4.7609667e-02 1.8053974e-02
8.2202167e-01 4.7598600e-02 2.1176441e-02
8.1722000e-01 4.7820200e-02 2.4364500e-02
8.1722000e-01 4.7820200e-02 2.4364500e-02
8.1251389e-01 4.8726267e-02 2.8036556e-02
8.0762322e-01 4.9394433e-02 3.1804989e-02
8.0254800e-01 4.9824700e-02 3.5669800e-02
7.9728822e-01 5.0017067e-02 3.9630989e-02
7.9184389e-01 4.9971533e-02 4.3688556e-02
7.8621500e-01 4.9688100e-02 4.7842500e-02
7.8621500e-01 4.9688100e-02 4.7842500e-02
7.8072789e-01 4.6783633e-02 4.7905056e-02
7.7482189e-01 4.4085633e-02 4.6538789e-02
7.6849700e-01 4.1594100e-02 4.3743700e-02
7.6175322e-01 3.9309033e-02 3.9519789e-02
7.5459056e-01 3.7230433e-02 3.3867056e-02
7.4700900e-01 3.5358300e-02 2.6785500e-02
7.4700900e-01 3.5358300e-02 2.6785500e-02
7.3981522e-01 3.4602933e-02 2.1174468e-02
7.3296656e-01 3.3824200e-02 1.6310068e-02
7.2646300e-01 3.3022100e-02 1.2192300e-02
7.2030456e-01 3.2196633e-02 8.8211644e-03
7.1449122e-01 3.1347800e-02 6.1966611e-03
7.0902300e-01 3.0475600e-02 4.3187900e-03
5.1473700e-01 4.6624300e-02 -5.0599400e-04
5.2068367e-01 4.2355656e-02 1.7854611e-04
5.2766100e-01 3.8506622e-02 3.8032911e-04
5.3566900e-01 3.5077200e-02 9.9355000e-05
5.4470767e-01 3.2067389e-02 -6.6437622e-04
5.5477700e-01 2.9477189e-02 -1.9108646e-03
5.6587700e-01 2.7306600e-02 -3.6401100e-03
5.6587700e-01 2.7306600e-02 -3.6401100e-03
5.7568544e-01 2.8301622e-02 -3.8446271e-03
5.8491578e-01 2.9939656e-02 -3.7320204e-03
5.9356800e-01 3.2220700e-02 -3.3022900e-03
6.0164211e-01 3.5144756e-02 -2.5554358e-03
6.0913811e-01 3.8711822e-02 -1.4914578e-03
6.1605600e-01 4.2921900e-02 -1.1035600e-04
6.1605600e-01 4.2921900e-02 -1.1035600e-04
6.2266567e-01 4.6998011e-02 8.6608556e-04
6.2966833e-01 5.0284278e-02 1.8712809e-03
6.3706400e-01 5.2780700e-02 2.9052300e-03
6.4485267e-01 5.4487278e-02 3.9679329e-03
6.5303433e-01 5.5404011e-02 5.0593896e-03
6.6160900e-01 5.5530900e-02 6.1796000e-03
6.6160900e-01 5.5530900e-02 6.1796000e-03
6.7125856e-01 5.2466100e-02 6.6041511e-03
6.8020922e-01 4.8956867e-02 6.7348278e-03
6.8846100e-01 4.5003200e-02 6.5716300e-03
6.9601389e-01 4.0605100e-02 6.1145578e-03
7.0286789e-01 3.5762567e-02 5.3636111e-03
7.0902300e-01 3.0475600e-02 4.3187900e-03
4.1731200e-01 1.5304100e-01 -2.1553300e-03