# vtk DataFile Version 2.0
test
ASCII
DATASET POLYDATA
POINTS 4361 float
4.2710242e+00 6.7777665e+00 1.1860017e+01
4.3769756e+00 6.8420865e+00 1.1731588e+01
4.4851425e+00 6.9059653e+00 1.1604942e+01
4.5955250e+00 6.9694031e+00 1.1480080e+01
4.7081231e+00 7.0323996e+00 1.1357001e+01
4.8229367e+00 7.0949551e+00 1.1235707e+01
4.9399658e+00 7.1570694e+00 1.1116196e+01
4.9399658e+00 7.1570694e+00 1.1116196e+01
5.0615301e+00 7.2228583e+00 1.1000683e+01
5.1896903e+00 7.2874343e+00 1.0894263e+01
5.3244465e+00 7.3507975e+00 1.0796935e+01
5.4657986e+00 7.4129479e+00 1.0708700e+01
5.6137466e+00 7.4738854e+00 1.0629557e+01
5.7682906e+00 7.5336101e+00 1.0559506e+01
5.7682906e+00 7.5336101e+00 1.0559506e+01
5.9325136e+00 7.5891733e+00 1.0509753e+01
6.0989774e+00 7.6417066e+00 1.0473499e+01
6.2676820e+00 7.6912100e+00 1.0450743e+01
6.4386275e+00 7.7376837e+00 1.0441487e+01
6.6118139e+00 7.7811274e+00 1.0445730e+01
6.7872411e+00 7.8215414e+00 1.0463471e+01
6.7872411e+00 7.8215414e+00 1.0463471e+01
6.9610390e+00 7.8575615e+00 1.0486524e+01
7.1346233e+00 7.8908997e+00 1.0513379e+01
7.3079942e+00 7.9215562e+00 1.0544036e+01
7.4811515e+00 7.9495308e+00 1.0578494e+01
7.6540953e+00 7.9748237e+00 1.0616754e+01
7.8268256e+00 7.9974347e+00 1.0658816e+01
7.8268256e+00 7.9974347e+00 1.0658816e+01
7.9996721e+00 8.0177881e+00 1.0701424e+01
8.1734396e+00 8.0357578e+00 1.0740107e+01
8.3481282e+00 8.0513440e+00 1.0774864e+01
8.5237379e+00 8.0645465e+00 1.0805697e+01
8.7002686e+00 8.0753654e+00 1.0832604e+01
8.8777203e+00 8.0838007e+00 1.0855586e+01
8.8777203e+00 8.0838007e+00 1.0855586e+01
9.0579349e+00 8.0892989e+00 1.0869724e+01
9.2365112e+00 8.0923383e+00 1.0870139e+01
9.4134494e+00 8.0929186e+00 1.0856831e+01
9.5887494e+00 8.0910400e+00 1.0829801e+01
9.7624112e+00 8.0867025e+00 1.0789049e+01
9.9344348e+00 8.0799060e+00 1.0734574e+01
9.9344348e+00 8.0799060e+00 1.0734574e+01
1.0099210e+01 8.0705296e+00 1.0661726e+01
1.0256131e+01 8.0604438e+00 1.0577559e+01
1.0405197e+01 8.0496486e+00 1.0482075e+01
1.0546409e+01 8.0381441e+00 1.0375273e+01
1.0679766e+01 8.0259302e+00 1.0257153e+01
1.0805268e+01 8.0130069e+00 1.0127715e+01
1.0805268e+01 8.0130069e+00 1.0127715e+01
1.0920326e+01 8.0082139e+00 9.9907770e+00
1.1033331e+01 8.0021342e+00 9.8522811e+00
1.1144284e+01 7.9947679e+00 9.7122268e+00
1.1253184e+01 7.9861150e+00 9.5706142e+00
1.1360031e+01 7.9761755e+00 9.4274431e+00
1.1464826e+01 7.9649494e+00 9.2827136e+00
1.1464826e+01 7.9649494e+00 9.2827136e+00
1.1364379e+01 7.8971045e+00 9.1441333e+00
1.1264565e+01 7.8273733e+00 9.0061018e+00
1.1165382e+01 7.7557558e+00 8.8686193e+00
1.1066832e+01 7.6822520e+00 8.7316857e+00
1.0968913e+01 7.6068618e+00 8.5953010e+00
1.0871627e+01 7.5295853e+00 8.4594652e+00
1.0871627e+01 7.5295853e+00 8.4594652e+00
1.0775823e+01 7.4593903e+00 8.3185389e+00
1.0684272e+01 7.3880904e+00 8.1757266e+00
1.0596975e+01 7.3156856e+00 8.0310284e+00
1.0513931e+01 7.2421760e+00 7.8844444e+00
1.0435141e+01 7.1675615e+00 7.7359745e+00
1.0360604e+01 7.0918422e+00 7.5856187e+00
1.0360604e+01 7.0918422e+00 7.5856187e+00
1.0293124e+01 7.0148873e+00 7.4318022e+00
1.0234165e+01 6.9357995e+00 7.2766648e+00
1.0183727e+01 6.8545789e+00 7.1202065e+00
1.0141809e+01 6.7712253e+00 6.9624273e+00
1.0108412e+01 6.6857388e+00 6.8033271e+00
1.0083535e+01 6.5981194e+00 6.6429061e+00
1.0083535e+01 6.5981194e+00 6.6429061e+00
1.0070640e+01 6.5083506e+00 6.4822751e+00
1.0068207e+01 6.4172578e+00 6.3232523e+00
1.0076237e+01 6.3248411e+00 6.1658378e+00
1.0094728e+01 6.2311005e+00 6.0100316e+00
1.0123681e+01 6.1360359e+00 5.8558336e+00
1.0163097e+01 6.0396474e+00 5.7032439e+00
1.0163097e+01 6.0396474e+00 5.7032439e+00
1.0210807e+01 5.9427171e+00 5.5544100e+00
1.0264309e+01 5.8449789e+00 5.4087195e+00
1.0323602e+01 5.7464330e+00 5.2661724e+00
1.0388687e+01 5.6470791e+00 5.1267688e+00
1.0459563e+01 5.5469174e+00 4.9905086e+00
1.0536230e+01 5.4459479e+00 4.8573919e+00
1.0536230e+01 5.4459479e+00 4.8573919e+00
1.0615895e+01 5.3448209e+00 4.7267404e+00
1.0697137e+01 5.2427034e+00 4.5979432e+00
1.0779956e+01 5.1395954e+00 4.4710003e+00
1.0864351e+01 5.0354968e+00 4.3459117e+00
1.0950323e+01 4.9304076e+00 4.2226774e+00
1.1037872e+01 4.8243279e+00 4.1012974e+00
1.1037872e+01 4.8243279e+00 4.1012974e+00
1.1124873e+01 4.7161710e+00 3.9814885e+00
1.1209779e+01 4.6056634e+00 3.8623598e+00
1.1292591e+01 4.4928052e+00 3.7439114e+00
1.1373310e+01 4.3775964e+00 3.6261434e+00
1.1451934e+01 4.2600371e+00 3.5090556e+00
1.1528463e+01 4.1401271e+00 3.3926481e+00
1.1528463e+01 4.1401271e+00 3.3926481e+00
1.1600906e+01 4.0173575e+00 3.2760410e+00
1.1666797e+01 3.8916831e+00 3.1595277e+00
1.1726137e+01 3.7631038e+00 3.0431084e+00
1.1778924e+01 3.6316196e+00 2.9267829e+00
1.1825161e+01 3.4972306e+00 2.8105513e+00
1.1864845e+01 3.3599366e+00 2.6944136e+00
1.1864845e+01 3.3599366e+00 2.6944136e+00
1.1896420e+01 3.2187432e+00 2.5793857e+00
1.1917960e+01 3.0760579e+00 2.4656472e+00
1.1929467e+01 2.9318806e+00 2.3531981e+00
1.1930938e+01 2.7862113e+00 2.2420385e+00
1.1922376e+01 2.6390502e+00 2.1321683e+00
1.1903779e+01 2.4903971e+00 2.0235876e+00
1.1903779e+01 2.4903971e+00 2.0235876e+00
1.1873381e+01 2.3434639e+00 1.9157109e+00
1.1834970e+01 2.1975940e+00 1.8101672e+00
1.1788544e+01 2.0527873e+00 1.7069563e+00
1.1734103e+01 1.9090438e+00 1.6060784e+00
1.1671649e+01 1.7663636e+00 1.5075335e+00
1.1601181e+01 1.6247466e+00 1.4113215e+00
1.1601181e+01 1.6247466e+00 1.4113215e+00
1.1523358e+01 1.4854192e+00 1.3182092e+00
1.1441717e+01 1.3472706e+00 1.2270640e+00
1.1356258e+01 1.2103008e+00 1.1378858e+00
1.1266982e+01 1.0745100e+00 1.0506747e+00
1.1173887e+01 9.3989796e-01 9.6543065e-01
1.1076975e+01 8.0646483e-01 8.8215367e-01
1.1076975e+01 8.0646483e-01 8.8215367e-01
1.0979286e+01 6.7248537e-01 8.0051239e-01
1.0880782e+01 5.3879219e-01 7.1943831e-01
1.0781464e+01 4.0538530e-01 6.3893144e-01
1.0681331e+01 2.7226469e-01 5.5899176e-01
1.0580384e+01 1.3943036e-01 4.7961929e-01
1.0478622e+01 6.8823200e-03 4.0081401e-01
2.0799010e+00 5.6375311e+00 1.1704508e+01
2.0492163e+00 5.5971103e+00 1.1519482e+01
2.0196592e+00 5.5543098e+00 1.1334886e+01
1.9912298e+00 5.5091295e+00 1.1150719e+01
1.9639280e+00 5.4615695e+00 1.0966980e+01
1.9377538e+00 5.4116298e+00 1.0783671e+01
1.9127072e+00 5.3593103e+00 1.0600791e+01
1.9127072e+00 5.3593103e+00 1.0600791e+01
1.8946526e+00 5.3126547e+00 1.0415091e+01
1.8838377e+00 5.2638996e+00 1.0230044e+01
1.8802626e+00 5.2130451e+00 1.0045649e+01
1.8839272e+00 5.1600911e+00 9.8619072e+00
1.8948315e+00 5.1050377e+00 9.6788183e+00
1.9129756e+00 5.0478849e+00 9.4963823e+00
1.9129756e+00 5.0478849e+00 9.4963823e+00
1.9443267e+00 4.9862105e+00 9.3162302e+00
1.9862764e+00 4.9216202e+00 9.1410725e+00
2.0388246e+00 4.8541140e+00 8.9709093e+00
2.1019713e+00 4.7836917e+00 8.8057404e+00
2.1757165e+00 4.7103536e+00 8.6455659e+00
2.2600602e+00 4.6340995e+00 8.4903858e+00
2.2600602e+00 4.6340995e+00 8.4903858e+00
2.3573876e+00 4.5549043e+00 8.3446252e+00
2.4629114e+00 4.4743286e+00 8.2074671e+00
2.5766316e+00 4.3923723e+00 8.0789114e+00
2.6985481e+00 4.3090354e+00 7.9589581e+00
2.8286610e+00 4.2243178e+00 7.8476072e+00
2.9669703e+00 4.1382197e+00 7.7448587e+00
2.9669703e+00 4.1382197e+00 7.7448587e+00
3.1057979e+00 4.0520450e+00 7.6456990e+00
3.2455565e+00 3.9646189e+00 7.5492064e+00
3.3862462e+00 3.8759414e+00 7.4553809e+00
3.5278669e+00 3.7860125e+00 7.3642225e+00
3.6704187e+00 3.6948322e+00 7.2757312e+00
3.8139015e+00 3.6024006e+00 7.1899070e+00
3.8139015e+00 3.6024006e+00 7.1899070e+00
3.9581550e+00 3.5080063e+00 7.1071196e+00
4.0996876e+00 3.4109931e+00 7.0230635e+00
4.2384992e+00 3.3113610e+00 6.9377387e+00
4.3745900e+00 3.2091099e+00 6.8511452e+00
4.5079599e+00 3.1042399e+00 6.7632829e+00
4.6386089e+00 2.9967510e+00 6.6741520e+00
4.6386089e+00 2.9967510e+00 6.6741520e+00
4.7647252e+00 2.8860292e+00 6.5806511e+00
4.8820805e+00 2.7718141e+00 6.4823432e+00
4.9906748e+00 2.6541055e+00 6.3792284e+00
5.0905079e+00 2.5329037e+00 6.2713066e+00
5.1815801e+00 2.4082085e+00 6.1585780e+00
5.2638912e+00 2.2800199e+00 6.0410424e+00
5.2638912e+00 2.2800199e+00 6.0410424e+00
5.3300692e+00 2.1478873e+00 5.9166942e+00
5.3833497e+00 2.0155835e+00 5.7891513e+00
5.4237328e+00 1.8831084e+00 5.6584136e+00
5.4512185e+00 1.7504621e+00 5.5244811e+00
5.4658068e+00 1.6176446e+00 5.3873540e+00
5.4674976e+00 1.4846558e+00 5.2470320e+00
5.4674976e+00 1.4846558e+00 5.2470320e+00
5.4581313e+00 1.3553737e+00 5.1048572e+00
5.4418918e+00 1.2276435e+00 4.9625273e+00
5.4187790e+00 1.1014652e+00 4.8200422e+00
5.3887931e+00 9.7683888e-01 4.6774020e+00
5.3519339e+00 8.5376448e-01 4.5346066e+00
5.3082016e+00 7.3224200e-01 4.3916561e+00
5.3082016e+00 7.3224200e-01 4.3916561e+00
5.2619469e+00 6.0981399e-01 4.2510394e+00
5.2141571e+00 4.8765647e-01 4.1106204e+00
5.1648323e+00 3.6576944e-01 3.9703990e+00
5.1139723e+00 2.4415291e-01 3.8303753e+00
5.0615773e+00 1.2280686e-01 3.6905492e+00
5.0076472e+00 1.7313100e-03 3.5509208e+00
8.6160500e-01 5.4322444e+00 1.3904260e+01
9.2370823e-01 5.5375452e+00 1.3750650e+01
9.9858859e-01 5.6427528e+00 1.3606923e+01
1.0862461e+00 5.7478672e+00 1.3473080e+01
1.1866807e+00 5.8528883e+00 1.3349119e+01
1.2998924e+00 5.9578162e+00 1.3235042e+01
1.4258812e+00 6.0626509e+00 1.3130847e+01
1.4258812e+00 6.0626509e+00 1.3130847e+01
1.5849380e+00 6.1569424e+00 1.3069395e+01
1.7505019e+00 6.2414136e+00 1.3022560e+01
1.9225730e+00 6.3160644e+00 1.2990343e+01
2.1011512e+00 6.3808948e+00 1.2972744e+01
2.2862365e+00 6.4359048e+00 1.2969762e+01
2.4778290e+00 6.4810944e+00 1.2981398e+01
2.4778290e+00 6.4810944e+00 1.2981398e+01
2.6706625e+00 6.5203823e+00 1.2992678e+01
2.8599868e+00 6.5568665e+00 1.2985483e+01
3.0458018e+00 6.5905469e+00 1.2959812e+01
3.2281076e+00 6.6214236e+00 1.2915666e+01
3.4069041e+00 6.6494966e+00 1.2853045e+01
3.5821915e+00 6.6747658e+00 1.2771948e+01
3.5821915e+00 6.6747658e+00 1.2771948e+01
3.7273585e+00 6.6983408e+00 1.2644877e+01
3.8603809e+00 6.7193525e+00 1.2507839e+01
3.9812587e+00 6.7378009e+00 1.2360834e+01
4.0899918e+00 6.7536861e+00 1.2203862e+01
[...]
POINT_DATA 4361
VECTORS U float
9.7412200e-01 3.1491800e-01 -7.2399700e-03
9.8423778e-01 3.0774189e-01 -1.9756611e-03
9.9393378e-01 2.9980189e-01 2.7531089e-03
1.0032100e+00 2.9109800e-01 6.9463400e-03
1.0120664e+00 2.8163022e-01 1.0604032e-02
1.0205031e+00 2.7139856e-01 1.3726186e-02
1.0285200e+00 2.6040300e-01 1.6312800e-02
1.0285200e+00 2.6040300e-01 1.6312800e-02
1.0348944e+00 2.5188411e-01 1.8675211e-02
1.0406744e+00 2.4262011e-01 2.0004678e-02
1.0458600e+00 2.3261100e-01 2.0301200e-02
1.0504511e+00 2.2185678e-01 1.9564778e-02
1.0544478e+00 2.1035744e-01 1.7795411e-02
1.0578500e+00 1.9811300e-01 1.4993100e-02
1.0578500e+00 1.9811300e-01 1.4993100e-02
1.0624322e+00 1.8440756e-01 1.3941700e-02
1.0665089e+00 1.7153522e-01 1.3616367e-02
1.0700800e+00 1.5949600e-01 1.4017100e-02
1.0731456e+00 1.4828989e-01 1.5143900e-02
1.0757056e+00 1.3791689e-01 1.6996767e-02
1.0777600e+00 1.2837700e-01 1.9575700e-02
1.0777600e+00 1.2837700e-01 1.9575700e-02
1.0796089e+00 1.1904982e-01 1.9200944e-02
1.0811889e+00 1.1043282e-01 1.8952211e-02
1.0825000e+00 1.0252600e-01 1.8829500e-02
1.0835422e+00 9.5329356e-02 1.8832811e-02
1.0843156e+00 8.8842889e-02 1.8962144e-02
1.0848200e+00 8.3066600e-02 1.9217500e-02
1.0848200e+00 8.3066600e-02 1.9217500e-02
1.0849900e+00 7.7655633e-02 2.0179967e-02
1.0850800e+00 7.2617400e-02 2.1269267e-02
1.0850900e+00 6.7951900e-02 2.2485400e-02
1.0850200e+00 6.3659133e-02 2.3828367e-02
1.0848700e+00 5.9739100e-02 2.5298167e-02
1.0846400e+00 5.6191800e-02 2.6894800e-02
1.0846400e+00 5.6191800e-02 2.6894800e-02
1.0844667e+00 5.2564300e-02 2.8369856e-02
1.0842200e+00 4.9491667e-02 2.9316256e-02
1.0839000e+00 4.6973900e-02 2.9734000e-02
1.0835067e+00 4.5011000e-02 2.9623089e-02
1.0830400e+00 4.3602967e-02 2.8983522e-02
1.0825000e+00 4.2749800e-02 2.7815300e-02
1.0825000e+00 4.2749800e-02 2.7815300e-02
1.0822044e+00 4.2471911e-02 2.7178908e-02
1.0808844e+00 4.3113611e-02 2.5478274e-02
1.0785400e+00 4.4674900e-02 2.2713400e-02
1.0751711e+00 4.7155778e-02 1.8884284e-02
1.0707778e+00 5.0556244e-02 1.3990928e-02
1.0653600e+00 5.4876300e-02 8.0333300e-03
1.0653600e+00 5.4876300e-02 8.0333300e-03
1.0558067e+00 6.7759889e-02 -1.2480389e-03
1.0468400e+00 7.9656489e-02 -9.7699156e-03
1.0384600e+00 9.0566100e-02 -1.7532300e-02
1.0306667e+00 1.0048872e-01 -2.4535192e-02
1.0234600e+00 1.0942436e-01 -3.0778592e-02
1.0168400e+00 1.1737300e-01 -3.6262500e-02
1.0168400e+00 1.1737300e-01 -3.6262500e-02
1.0112551e+00 1.1317603e-01 -3.0602944e-02
1.0049598e+00 1.0760737e-01 -2.3785311e-02
9.9795400e-01 1.0066700e-01 -1.5809600e-02
9.9023778e-01 9.2354933e-02 -6.6758111e-03
9.8181111e-01 8.2671167e-02 3.6160556e-03
9.7267400e-01 7.1615700e-02 1.5066000e-02
9.7267400e-01 7.1615700e-02 1.5066000e-02
9.6250289e-01 6.8692644e-02 2.2761567e-02
9.5181689e-01 6.6223378e-02 3.0130100e-02
9.4061600e-01 6.4207900e-02 3.7171600e-02
9.2890022e-01 6.2646211e-02 4.3886067e-02
9.1666956e-01 6.1538311e-02 5.0273500e-02
9.0392400e-01 6.0884200e-02 5.6333900e-02
9.0392400e-01 6.0884200e-02 5.6333900e-02
8.9116133e-01 6.1280078e-02 6.1214889e-02
8.7761933e-01 6.1583144e-02 6.5523656e-02
8.6329800e-01 6.1793400e-02 6.9260200e-02
8.4819733e-01 6.1910844e-02 7.2424522e-02
8.3231733e-01 6.1935478e-02 7.5016622e-02
8.1565800e-01 6.1867300e-02 7.7036500e-02
8.1565800e-01 6.1867300e-02 7.7036500e-02
7.9860511e-01 6.1560122e-02 7.8106867e-02
7.8213511e-01 6.0906556e-02 7.8398600e-02
7.6624800e-01 5.9906600e-02 7.7911700e-02
7.5094378e-01 5.8560256e-02 7.6646167e-02
7.3622244e-01 5.6867522e-02 7.4602000e-02
7.2208400e-01 5.4828400e-02 7.1779200e-02
7.2208400e-01 5.4828400e-02 7.1779200e-02
7.0809678e-01 5.2350089e-02 6.8634856e-02
6.9452911e-01 4.9457122e-02 6.5456522e-02
6.8138100e-01 4.6149500e-02 6.2244200e-02
6.6865244e-01 4.2427222e-02 5.8997889e-02
6.5634344e-01 3.8290289e-02 5.5717589e-02
6.4445400e-01 3.3738700e-02 5.2403300e-02
6.4445400e-01 3.3738700e-02 5.2403300e-02
6.3269622e-01 2.9452182e-02 4.8743956e-02
6.2100122e-01 2.5183449e-02 4.4943089e-02
6.0936900e-01 2.0932500e-02 4.1000700e-02
5.9779956e-01 1.6699336e-02 3.6916789e-02
5.8629289e-01 1.2483956e-02 3.2691356e-02
5.7484900e-01 8.2863600e-03 2.8324400e-02
5.7484900e-01 8.2863600e-03 2.8324400e-02
5.6286078e-01 3.4580167e-03 2.4256226e-02
5.5030011e-01 -1.6170267e-03 2.0126892e-02
5.3716700e-01 -6.9387700e-03 1.5936400e-02
5.2346144e-01 -1.2507213e-02 1.1684749e-02
5.0918344e-01 -1.8322357e-02 7.3719389e-03
4.9433300e-01 -2.4384200e-02 2.9979700e-03
4.9433300e-01 -2.4384200e-02 2.9979700e-03
4.7827011e-01 -3.0472456e-02 -1.6286944e-03
4.6103644e-01 -3.6279256e-02 -6.1323178e-03
4.4263200e-01 -4.1804600e-02 -1.0512900e-02
4.2305678e-01 -4.7048489e-02 -1.4770441e-02
4.0231078e-01 -5.2010922e-02 -1.8904941e-02
3.8039400e-01 -5.6691900e-02 -2.2916400e-02
3.8039400e-01 -5.6691900e-02 -2.2916400e-02
3.5852144e-01 -6.1238478e-02 -2.5378856e-02
3.3650244e-01 -6.4812911e-02 -2.7191956e-02
3.1433700e-01 -6.7415200e-02 -2.8355700e-02
2.9202511e-01 -6.9045344e-02 -2.8870089e-02
2.6956678e-01 -6.9703344e-02 -2.8735122e-02
2.4696200e-01 -6.9389200e-02 -2.7950800e-02
2.4696200e-01 -6.9389200e-02 -2.7950800e-02
2.2493856e-01 -6.6412989e-02 -2.8231833e-02
2.0420489e-01 -6.2882056e-02 -2.8275667e-02
1.8476100e-01 -5.8796400e-02 -2.8082300e-02
1.6660689e-01 -5.4156022e-02 -2.7651733e-02
1.4974256e-01 -4.8960922e-02 -2.6983967e-02
1.3416800e-01 -4.3211100e-02 -2.6079000e-02
1.3416800e-01 -4.3211100e-02 -2.6079000e-02
1.1831303e-01 -3.7162696e-02 -2.4614700e-02
1.0340927e-01 -3.1296062e-02 -2.2916333e-02
8.9456700e-02 -2.5611200e-02 -2.0983900e-02
7.6455333e-02 -2.0108109e-02 -1.8817400e-02
6.4405167e-02 -1.4786789e-02 -1.6416833e-02
5.3306200e-02 -9.6472400e-03 -1.3782200e-02
5.3306200e-02 -9.6472400e-03 -1.3782200e-02
4.3945481e-02 -6.2522817e-03 -1.0718548e-02
3.5112681e-02 -3.1133360e-03 -7.6725311e-03
2.6807800e-02 -2.3040300e-04 -4.6441500e-03
1.9030838e-02 2.3965173e-03 -1.6334044e-03
1.1781794e-02 4.7674250e-03 1.3597056e-03
5.0606700e-03 6.8823200e-03 4.3351800e-03
8.6178100e-01 4.2601900e-01 5.9953000e-02
8.5368322e-01 4.2182944e-01 6.2448256e-02
8.4441289e-01 4.1584644e-01 6.5453256e-02
8.3397000e-01 4.0807000e-01 6.8968000e-02
8.2235456e-01 3.9850011e-01 7.2992489e-02
8.0956656e-01 3.8713678e-01 7.7526722e-02
7.9560600e-01 3.7398000e-01 8.2570700e-02
7.9560600e-01 3.7398000e-01 8.2570700e-02
7.8414522e-01 3.6769156e-01 8.5397822e-02
7.7196256e-01 3.6115222e-01 8.7822722e-02
7.5905800e-01 3.5436200e-01 8.9845400e-02
7.4543156e-01 3.4732089e-01 9.1465856e-02
7.3108322e-01 3.4002889e-01 9.2684089e-02
7.1601300e-01 3.3248600e-01 9.3500100e-02
7.1601300e-01 3.3248600e-01 9.3500100e-02
7.0140444e-01 3.2322178e-01 9.4152189e-02
6.8575911e-01 3.1323444e-01 9.3751256e-02
6.6907700e-01 3.0252400e-01 9.2297300e-02
6.5135811e-01 2.9109044e-01 8.9790322e-02
6.3260244e-01 2.7893378e-01 8.6230322e-02
6.1281000e-01 2.6605400e-01 8.1617300e-02
6.1281000e-01 2.6605400e-01 8.1617300e-02
5.9510811e-01 2.5179044e-01 7.6446800e-02
5.7949144e-01 2.3744478e-01 7.2733100e-02
5.6596000e-01 2.2301700e-01 7.0476200e-02
5.5451378e-01 2.0850711e-01 6.9676100e-02
5.4515278e-01 1.9391511e-01 7.0332800e-02
5.3787700e-01 1.7924100e-01 7.2446300e-02
5.3787700e-01 1.7924100e-01 7.2446300e-02
5.2879244e-01 1.6548133e-01 7.2655278e-02
5.1954844e-01 1.5211800e-01 7.2378644e-02
5.1014500e-01 1.3915100e-01 7.1616400e-02
5.0058211e-01 1.2658033e-01 7.0368544e-02
4.9085978e-01 1.1440600e-01 6.8635078e-02
4.8097800e-01 1.0262800e-01 6.6416000e-02
4.8097800e-01 1.0262800e-01 6.6416000e-02
4.7237244e-01 9.0934189e-02 6.6152900e-02
4.6325844e-01 7.9516289e-02 6.5375267e-02
4.5363600e-01 6.8374300e-02 6.4083100e-02
4.4350511e-01 5.7508222e-02 6.2276400e-02
4.3286578e-01 4.6918056e-02 5.9955167e-02
4.2171800e-01 3.6603800e-02 5.7119400e-02
4.2171800e-01 3.6603800e-02 5.7119400e-02
4.0958756e-01 2.7016794e-02 5.2792478e-02
3.9612056e-01 1.7955311e-02 4.7996578e-02
3.8131700e-01 9.4193500e-03 4.2731700e-02
3.6517689e-01 1.4089111e-03 3.6997844e-02
3.4770022e-01 -6.0760056e-03 3.0795011e-02
3.2888700e-01 -1.3035400e-02 2.4123200e-02
3.2888700e-01 -1.3035400e-02 2.4123200e-02
3.0635822e-01 -1.9323822e-02 1.7356732e-02
2.8349356e-01 -2.4226256e-02 1.1462809e-02
2.6029300e-01 -2.7742700e-02 6.4414300e-03
2.3675656e-01 -2.9873156e-02 2.2925956e-03
2.1288422e-01 -3.0617622e-02 -9.8369444e-04
1.8867600e-01 -2.9976100e-02 -3.3874400e-03
1.8867600e-01 -2.9976100e-02 -3.3874400e-03
1.6650431e-01 -2.7017838e-02 -5.9407500e-03
1.4558298e-01 -2.3700571e-02 -7.9403133e-03
1.2591200e-01 -2.0024300e-02 -9.3861300e-03
1.0749138e-01 -1.5989024e-02 -1.0278200e-02
9.0321111e-02 -1.1594744e-02 -1.0616523e-02
7.4401200e-02 -6.8414600e-03 -1.0401100e-02
7.4401200e-02 -6.8414600e-03 -1.0401100e-02
6.0368678e-02 -4.5321111e-03 -8.2790000e-03
4.7092244e-02 -2.5749838e-03 -6.0206433e-03
3.4571900e-02 -9.7007800e-04 -3.6260300e-03
2.2807644e-02 2.8260622e-04 -1.0951600e-03
1.1799478e-02 1.1830689e-03 1.5719667e-03
1.5474000e-03 1.7313100e-03 4.3753500e-03
8.6160500e-01 4.6254000e-01 -1.5522900e-02
8.7301078e-01 4.6476667e-01 -9.7458667e-03
8.8383078e-01 4.6546467e-01 -4.2289600e-03
8.9406500e-01 4.6463400e-01 1.0278200e-03
9.0371344e-01 4.6227467e-01 6.0244733e-03
9.1277611e-01 4.5838667e-01 1.0761000e-02
9.2125300e-01 4.5297000e-01 1.5237400e-02
9.2125300e-01 4.5297000e-01 1.5237400e-02
9.2851611e-01 4.4279756e-01 1.7845837e-02
9.3519944e-01 4.3159322e-01 1.8992670e-02
9.4130300e-01 4.1935700e-01 1.8677900e-02
9.4682678e-01 4.0608889e-01 1.6901527e-02
9.5177078e-01 3.9178889e-01 1.3663550e-02
9.5613500e-01 3.7645700e-01 8.9639700e-03
9.5613500e-01 3.7645700e-01 8.9639700e-03
9.6018678e-01 3.5998278e-01 4.8754122e-03
9.6336078e-01 3.4556711e-01 1.1646422e-03
9.6565700e-01 3.3321000e-01 -2.1683400e-03
9.6707544e-01 3.2291144e-01 -5.1235344e-03
9.6761611e-01 3.1467144e-01 -7.7009411e-03
9.6727900e-01 3.0849000e-01 -9.9005600e-03
9.6727900e-01 3.0849000e-01 -9.9005600e-03
9.6660367e-01 3.0861300e-01 -1.0663814e-02
9.6665467e-01 3.0911533e-01 -1.0944394e-02
9.6743200e-01 3.0999700e-01 -1.0742300e-02
9.6893567e-01 3.1125800e-01 -1.0057531e-02
9.7116567e-01 3.1289833e-01 -8.8900878e-03
9.7412200e-01 3.1491800e-01 -7.2399700e-03
8.3385600e-01 4.5097100e-01 2.0244700e-02
8.4061989e-01 4.4988233e-01 2.9999944e-02
8.4653989e-01 4.4756567e-01 3.8500311e-02
8.5161600e-01 4.4402100e-01 4.5745800e-02
8.5584822e-01 4.3924833e-01 5.1736411e-02
8.5923656e-01 4.3324767e-01 5.6472144e-02
8.6178100e-01 4.2601900e-01 5.9953000e-02
1.0168400e+00 1.1737300e-01 -3.6262500e-02
1.0084966e+00 1.0383679e-01 -3.4892489e-02
9.9992056e-01 9.0888256e-02 -3.3150189e-02
9.9111200e-01 7.8527400e-02 -3.1035600e-02
9.8207089e-01 6.6754222e-02 -2.8548722e-02
9.7279722e-01 5.5568722e-02 -2.5689556e-02
9.6329100e-01 4.4970900e-02 -2.2458100e-02
9.6329100e-01 4.4970900e-02 -2.2458100e-02
9.5816500e-01 3.8680189e-02 -2.1579493e-02
9.5194800e-01 3.2923356e-02 -1.9614559e-02
9.4464000e-01 2.7700400e-02 -1.6563300e-02
9.3624100e-01 2.3011322e-02 -1.2425715e-02
9.2675100e-01 1.8856122e-02 -7.2018039e-03
9.1617000e-01 1.5234800e-02 -8.9156700e-04
9.1617000e-01 1.5234800e-02 -8.9156700e-04
9.0434356e-01 1.0883662e-02 4.6289961e-03
8.9214789e-01 7.0626456e-03 9.6853851e-03
8.7958300e-01 3.7717500e-03 1.4277600e-02
8.6664889e-01 1.0109756e-03 1.8405641e-02
8.5334556e-01 -1.2196778e-03 2.2069507e-02
8.3967300e-01 -2.9202100e-03 2.5269200e-02
8.3967300e-01 -2.9202100e-03 2.5269200e-02
8.2043367e-01 -4.7235500e-03 2.8129100e-02
8.0072633e-01 -6.1752167e-03 3.0035433e-02
7.8055100e-01 -7.2752100e-03 3.0988200e-02
7.5990767e-01 -8.0235300e-03 3.0987400e-02
7.3879633e-01 -8.4201767e-03 3.0033033e-02
7.1721700e-01 -8.4651500e-03 2.8125100e-02
7.1721700e-01 -8.4651500e-03 2.8125100e-02
6.9913011e-01 -7.1184856e-03 2.6591878e-02
6.8127111e-01 -5.3691956e-03 2.4814311e-02
6.6364000e-01 -3.2172800e-03 2.2792400e-02
6.4623678e-01 -6.6273889e-04 2.0526144e-02
6.2906144e-01 2.2944278e-03 1.8015544e-02
6.1211400e-01 5.6542200e-03 1.5260600e-02
6.1211400e-01 5.6542200e-03 1.5260600e-02
5.9492233e-01 8.3343667e-03 1.1748671e-02
5.7752967e-01 1.1278027e-02 8.2374111e-03
5.5993600e-01 1.4485200e-02 4.7268200e-03
5.4214133e-01 1.7955887e-02 1.2168978e-03
5.2414567e-01 2.1690087e-02 -2.2923556e-03
5.0594900e-01 2.5687800e-02 -5.8009400e-03
5.0594900e-01 2.5687800e-02 -5.8009400e-03
4.8936433e-01 2.8952267e-02 -9.1061444e-03
4.7153767e-01 3.2682967e-02 -1.1873698e-02
4.5246900e-01 3.6879900e-02 -1.4103600e-02
4.3215833e-01 4.1543067e-02 -1.5795851e-02
4.1060567e-01 4.6672467e-02 -1.6950451e-02
3.8781100e-01 5.2268100e-02 -1.7567400e-02
3.8781100e-01 5.2268100e-02 -1.7567400e-02
3.6119067e-01 5.9516456e-02 -1.6576216e-02
3.3555333e-01 6.5284256e-02 -1.5327849e-02
3.1089900e-01 6.9571500e-02 -1.3822300e-02
2.8722767e-01 7.2378189e-02 -1.2059569e-02
2.6453933e-01 7.3704322e-02 -1.0039656e-02
2.4283400e-01 7.3549900e-02 -7.7625600e-03
2.4283400e-01 7.3549900e-02 -7.7625600e-03
2.1971122e-01 7.1589311e-02 -5.4362400e-03
1.9809489e-01 6.8817911e-02 -3.3011567e-03
1.7798500e-01 6.5235700e-02 -1.3573100e-03
1.5938156e-01 6.0842678e-02 3.9530000e-04
1.4228456e-01 5.5638844e-02 1.9566733e-03
1.2669400e-01 4.9624200e-02 3.3268100e-03
1.2669400e-01 4.9624200e-02 3.3268100e-03
1.1186832e-01 4.3871756e-02 5.4704778e-03
9.7740389e-02 3.8190922e-02 7.4789444e-03
8.4310200e-02 3.2581700e-02 9.3522100e-03
7.1577756e-02 2.7044089e-02 1.1090274e-02
5.9543056e-02 2.1578089e-02 1.2693138e-02
4.8206100e-02 1.6183700e-02 1.4160800e-02
4.8206100e-02 1.6183700e-02 1.4160800e-02
4.1927028e-02 1.3813913e-02 1.1784441e-02
3.5480894e-02 1.0910440e-02 9.4611810e-03
2.8867700e-02 7.4732800e-03 7.1910200e-03
2.2087444e-02 3.5024333e-03 4.9739580e-03
1.5140128e-02 -1.0021000e-03 2.8099950e-03
8.0257500e-03 -6.0403200e-03 6.9913100e-04
3.2319300e+00 2.2903300e-01 7.6057100e-02
3.2266411e+00 2.1143178e-01 8.1609833e-02
3.2208744e+00 1.9438644e-01 8.7024933e-02
3.2146300e+00 1.7789700e-01 9.2302400e-02
3.2079078e+00 1.6196344e-01 9.7442233e-02
3.2007078e+00 1.4658578e-01 1.0244443e-01
3.1930300e+00 1.3176400e-01 1.0730900e-01
3.1930300e+00 1.3176400e-01 1.0730900e-01
3.1862622e+00 1.2186089e-01 1.1048456e-01
3.1793589e+00 1.1464289e-01 1.1343289e-01
3.1723200e+00 1.1011000e-01 1.1615400e-01
3.1651456e+00 1.0826222e-01 1.1864789e-01
3.1578356e+00 1.0909956e-01 1.2091456e-01
3.1503900e+00 1.1262200e-01 1.2295400e-01
3.1503900e+00 1.1262200e-01 1.2295400e-01
3.1427644e+00 1.1576544e-01 1.2467300e-01
3.1341911e+00 1.1925511e-01 1.2653500e-01
3.1246700e+00 1.2309100e-01 1.2854000e-01
3.1142011e+00 1.2727311e-01 1.3068800e-01
3.1027844e+00 1.3180144e-01 1.3297900e-01
3.0904200e+00 1.3667600e-01 1.3541300e-01
3.0904200e+00 1.3667600e-01 1.3541300e-01
3.0738522e+00 1.4207767e-01 1.3956144e-01
3.0580856e+00 1.4488833e-01 1.4357311e-01
3.0431200e+00 1.4510800e-01 1.4744800e-01
3.0289556e+00 1.4273667e-01 1.5118611e-01
3.0155922e+00 1.3777433e-01 1.5478744e-01
3.0030300e+00 1.3022100e-01 1.5825200e-01
3.0030300e+00 1.3022100e-01 1.5825200e-01
2.9931922e+00 1.2156511e-01 1.5951333e-01
2.9838789e+00 1.1255511e-01 1.5954833e-01
2.9750900e+00 1.0319100e-01 1.5835700e-01
2.9668256e+00 9.3472778e-02 1.5593933e-01
2.9590856e+00 8.3400444e-02 1.5229533e-01
2.9518700e+00 7.2974000e-02 1.4742500e-01
2.9518700e+00 7.2974000e-02 1.4742500e-01
2.9382456e+00 8.2332833e-02 1.4841756e-01
2.9235056e+00 9.1188400e-02 1.4866756e-01
2.9076500e+00 9.9540700e-02 1.4817500e-01
2.8906789e+00 1.0738973e-01 1.4693989e-01
2.8725922e+00 1.1473550e-01 1.4496222e-01
2.8533900e+00 1.2157800e-01 1.4224200e-01
2.8533900e+00 1.2157800e-01 1.4224200e-01
2.8350700e+00 1.2570644e-01 1.3653611e-01
2.8181233e+00 1.2772578e-01 1.3032211e-01
2.8025500e+00 1.2763600e-01 1.2360000e-01
2.7883500e+00 1.2543711e-01 1.1636978e-01
2.7755233e+00 1.2112911e-01 1.0863144e-01
2.7640700e+00 1.1471200e-01 1.0038500e-01
2.7640700e+00 1.1471200e-01 1.0038500e-01
2.7544100e+00 1.0626982e-01 9.5412767e-02
2.7438467e+00 9.7516889e-02 8.9996933e-02
2.7323800e+00 8.8453200e-02 8.4137500e-02
2.7200100e+00 7.9078756e-02 7.7834467e-02
2.7067367e+00 6.9393556e-02 7.1087833e-02
2.6925600e+00 5.9397600e-02 6.3897600e-02
2.6925600e+00 5.9397600e-02 6.3897600e-02
2.6748733e+00 4.9616522e-02 5.4457933e-02
2.6554467e+00 4.2194422e-02 4.5825400e-02
2.6342800e+00 3.7131300e-02 3.8000000e-02
2.6113733e+00 3.4427156e-02 3.0981733e-02
2.5867267e+00 3.4081989e-02 2.4770600e-02
2.5603400e+00 3.6095800e-02 1.9366600e-02
2.5603400e+00 3.6095800e-02 1.9366600e-02
2.5335789e+00 4.3270356e-02 1.7017944e-02
2.5093022e+00 5.0390689e-02 1.5239311e-02
2.4875100e+00 5.7456800e-02 1.4030700e-02
2.4682022e+00 6.4468689e-02 1.3392111e-02
2.4513789e+00 7.1426356e-02 1.3323544e-02
2.4370400e+00 7.8329800e-02 1.3825000e-02
2.4816800e+00 1.0466700e-01 -2.0114000e-03
2.4779789e+00 9.7264967e-02 -1.4742278e-03
2.4727822e+00 9.1067933e-02 -9.6164444e-05
2.4660900e+00 8.6075900e-02 2.1227900e-03
2.4579022e+00 8.2288867e-02 5.1826356e-03
2.4482189e+00 7.9706833e-02 9.0833722e-03
2.4370400e+00 7.8329800e-02 1.3825000e-02
3.0765700e+00 2.5039400e-01 7.4529100e-02
3.0670878e+00 2.4308311e-01 6.7992767e-02
3.0576144e+00 2.3564344e-01 6.1116700e-02
3.0481500e+00 2.2807500e-01 5.3900900e-02
3.0386944e+00 2.2037778e-01 4.6345367e-02
3.0292478e+00 2.1255178e-01 3.8450100e-02
3.0198100e+00 2.0459700e-01 3.0215100e-02
3.0198100e+00 2.0459700e-01 3.0215100e-02
3.0108456e+00 1.9492344e-01 2.2099178e-02
3.0020789e+00 1.8587911e-01 1.6088378e-02
2.9935100e+00 1.7746400e-01 1.2182700e-02
2.9851389e+00 1.6967811e-01 1.0382144e-02
2.9769656e+00 1.6252144e-01 1.0686711e-02
2.9689900e+00 1.5599400e-01 1.3096400e-02
2.9689900e+00 1.5599400e-01 1.3096400e-02
2.9563244e+00 1.5287111e-01 2.3330200e-02
2.9427011e+00 1.5066278e-01 3.3739333e-02
2.9281200e+00 1.4936900e-01 4.4323800e-02
2.9125811e+00 1.4898978e-01 5.5083600e-02
2.8960844e+00 1.4952511e-01 6.6018733e-02
2.8786300e+00 1.5097500e-01 7.7129200e-02
2.8786300e+00 1.5097500e-01 7.7129200e-02
2.8617678e+00 1.5472233e-01 8.9602000e-02
2.8441844e+00 1.5760000e-01 1.0231793e-01
2.8258800e+00 1.5960800e-01 1.1527700e-01
2.8068544e+00 1.6074633e-01 1.2847920e-01
2.7871078e+00 1.6101500e-01 1.4192453e-01
2.7666400e+00 1.6041400e-01 1.5561300e-01
2.7666400e+00 1.6041400e-01 1.5561300e-01
2.7456356e+00 1.4975178e-01 1.5429170e-01
2.7229656e+00 1.4036344e-01 1.4799870e-01
2.6986300e+00 1.3224900e-01 1.3673400e-01
2.6726289e+00 1.2540844e-01 1.2049760e-01
2.6449622e+00 1.1984178e-01 9.9289500e-02
2.6156300e+00 1.1554900e-01 7.3109700e-02
2.6156300e+00 1.1554900e-01 7.3109700e-02
2.5887856e+00 1.1457533e-01 5.3325322e-02
2.5637489e+00 1.1326567e-01 3.6446622e-02
2.5405200e+00 1.1162000e-01 2.2473600e-02
2.5190989e+00 1.0963833e-01 1.1406256e-02
2.4994856e+00 1.0732067e-01 3.2445889e-03
2.4816800e+00 1.0466700e-01 -2.0114000e-03
1.8092800e+00 1.7432600e-01 -1.2947900e-02
1.8284644e+00 1.5950100e-01 -1.0156339e-02
1.8510711e+00 1.4571667e-01 -8.9667622e-03
1.8771000e+00 1.3297300e-01 -9.3791700e-03
1.9065511e+00 1.2127000e-01 -1.1393562e-02
1.9394244e+00 1.1060767e-01 -1.5009939e-02
1.9757200e+00 1.0098600e-01 -2.0228300e-02
1.9757200e+00 1.0098600e-01 -2.0228300e-02
2.0102433e+00 1.0223578e-01 -2.0715451e-02
2.0434300e+00 1.0617044e-01 -2.0125418e-02
2.0752800e+00 1.1279000e-01 -1.8458200e-02
2.1057933e+00 1.2209444e-01 -1.5713798e-02
2.1349700e+00 1.3408378e-01 -1.1892211e-02
2.1628100e+00 1.4875800e-01 -6.9934400e-03
2.1628100e+00 1.4875800e-01 -6.9934400e-03
2.1887711e+00 1.6309800e-01 -4.0339022e-03
2.2156078e+00 1.7450167e-01 -1.2247556e-03
2.2433200e+00 1.8296900e-01 1.4340000e-03
2.2719078e+00 1.8850000e-01 3.9423644e-03
2.3013711e+00 1.9109467e-01 6.3003378e-03
2.3317100e+00 1.9075300e-01 8.5079200e-03
2.3317100e+00 1.9075300e-01 8.5079200e-03
2.3632467e+00 1.7938478e-01 8.5008500e-03
2.3921667e+00 1.6682478e-01 7.7953200e-03
2.4184700e+00 1.5307300e-01 6.3913300e-03
2.4421567e+00 1.3812944e-01 4.2888800e-03
2.4632267e+00 1.2199411e-01 1.4879700e-03
2.4816800e+00 1.0466700e-01 -2.0114000e-03
1.4858900e+00 5.3808000e-01 -1.1512800e-02