# vtk DataFile Version 2.0
test
ASCII
DATASET POLYDATA
POINTS 4361 float
6.8386122e+00 7.5842185e+00 1.1855700e+01
6.9587700e+00 7.6290996e+00 1.1735572e+01
7.0797676e+00 7.6719418e+00 1.1615578e+01
7.2016050e+00 7.7127451e+00 1.1495718e+01
7.3242822e+00 7.7515094e+00 1.1375992e+01
7.4477991e+00 7.7882349e+00 1.1256400e+01
7.5721558e+00 7.8229214e+00 1.1136943e+01
7.5721558e+00 7.8229214e+00 1.1136943e+01
7.6989812e+00 7.8698665e+00 1.1021230e+01
7.8310581e+00 7.9147145e+00 1.0911869e+01
7.9683865e+00 7.9574655e+00 1.0808860e+01
8.1109663e+00 7.9981195e+00 1.0712203e+01
8.2587977e+00 8.0366763e+00 1.0621898e+01
8.4118806e+00 8.0731361e+00 1.0537945e+01
8.4118806e+00 8.0731361e+00 1.0537945e+01
8.5800925e+00 8.1000705e+00 1.0479660e+01
8.7500763e+00 8.1258275e+00 1.0439394e+01
8.9218320e+00 8.1504070e+00 1.0417147e+01
9.0953597e+00 8.1738092e+00 1.0412917e+01
9.2706594e+00 8.1960340e+00 1.0426706e+01
9.4477311e+00 8.2170814e+00 1.0458513e+01
9.4477311e+00 8.2170814e+00 1.0458513e+01
9.6224001e+00 8.2343252e+00 1.0486295e+01
9.7967211e+00 8.2501188e+00 1.0516930e+01
9.9706942e+00 8.2644622e+00 1.0550419e+01
1.0144319e+01 8.2773554e+00 1.0586761e+01
1.0317596e+01 8.2887983e+00 1.0625957e+01
1.0490526e+01 8.2987911e+00 1.0668007e+01
1.0490526e+01 8.2987911e+00 1.0668007e+01
1.0662932e+01 8.3068987e+00 1.0713269e+01
1.0836360e+01 8.3135557e+00 1.0753475e+01
1.1010808e+01 8.3187621e+00 1.0788624e+01
1.1186278e+01 8.3225179e+00 1.0818717e+01
1.1362769e+01 8.3248232e+00 1.0843753e+01
1.1540280e+01 8.3256779e+00 1.0863733e+01
1.1540280e+01 8.3256779e+00 1.0863733e+01
1.1720267e+01 8.3238329e+00 1.0875573e+01
1.1898087e+01 8.3204678e+00 1.0872459e+01
1.2073739e+01 8.3155827e+00 1.0854393e+01
1.2247225e+01 8.3091776e+00 1.0821374e+01
1.2418543e+01 8.3012524e+00 1.0773401e+01
1.2587695e+01 8.2918072e+00 1.0710476e+01
1.2587695e+01 8.2918072e+00 1.0710476e+01
1.2748687e+01 8.2812755e+00 1.0628890e+01
1.2901271e+01 8.2738313e+00 1.0536453e+01
1.3045447e+01 8.2694747e+00 1.0433163e+01
1.3181215e+01 8.2682058e+00 1.0319021e+01
1.3308576e+01 8.2700244e+00 1.0194026e+01
1.3427528e+01 8.2749306e+00 1.0058180e+01
1.3427528e+01 8.2749306e+00 1.0058180e+01
1.3532156e+01 8.3101927e+00 9.9165860e+00
1.3636484e+01 8.3407618e+00 9.7736755e+00
1.3740514e+01 8.3666378e+00 9.6294481e+00
1.3844244e+01 8.3878207e+00 9.4839040e+00
1.3947674e+01 8.4043106e+00 9.3370430e+00
1.4050806e+01 8.4161074e+00 9.1888651e+00
1.4050806e+01 8.4161074e+00 9.1888651e+00
1.3936849e+01 8.3371562e+00 9.0600842e+00
1.3822416e+01 8.2537290e+00 8.9356382e+00
1.3707508e+01 8.1658258e+00 8.8155268e+00
1.3592125e+01 8.0734467e+00 8.6997503e+00
1.3476267e+01 7.9765916e+00 8.5883085e+00
1.3359933e+01 7.8752606e+00 8.4812014e+00
1.3359933e+01 7.8752606e+00 8.4812014e+00
1.3242404e+01 7.7977707e+00 8.3572146e+00
1.3128089e+01 7.7182294e+00 8.2319944e+00
1.3016989e+01 7.6366367e+00 8.1055408e+00
1.2909102e+01 7.5529925e+00 7.9778538e+00
1.2804429e+01 7.4672970e+00 7.8489335e+00
1.2702970e+01 7.3795500e+00 7.7187798e+00
1.2702970e+01 7.3795500e+00 7.7187798e+00
1.2605685e+01 7.2976059e+00 7.5810403e+00
1.2515255e+01 7.2132131e+00 7.4411821e+00
1.2431679e+01 7.1263715e+00 7.2992053e+00
1.2354957e+01 7.0370811e+00 7.1551097e+00
1.2285090e+01 6.9453420e+00 7.0088955e+00
1.2222077e+01 6.8511541e+00 6.8605626e+00
1.2222077e+01 6.8511541e+00 6.8605626e+00
1.2174941e+01 6.7543478e+00 6.7098372e+00
1.2134868e+01 6.6559836e+00 6.5585694e+00
1.2101859e+01 6.5560615e+00 6.4067591e+00
1.2075913e+01 6.4545815e+00 6.2544064e+00
1.2057031e+01 6.3515437e+00 6.1015113e+00
1.2045213e+01 6.2469480e+00 5.9480737e+00
1.2045213e+01 6.2469480e+00 5.9480737e+00
1.2042438e+01 6.1405585e+00 5.7958424e+00
1.2046464e+01 6.0320604e+00 5.6460656e+00
1.2057291e+01 5.9214535e+00 5.4987432e+00
1.2074919e+01 5.8087378e+00 5.3538752e+00
1.2099347e+01 5.6939134e+00 5.2114617e+00
1.2130576e+01 5.5769802e+00 5.0715026e+00
1.2130576e+01 5.5769802e+00 5.0715026e+00
1.2163213e+01 5.4584618e+00 4.9338874e+00
1.2197487e+01 5.3394031e+00 4.7971838e+00
1.2233397e+01 5.2198039e+00 4.6613916e+00
1.2270943e+01 5.0996642e+00 4.5265110e+00
1.2310125e+01 4.9789842e+00 4.3925418e+00
1.2350943e+01 4.8577638e+00 4.2594840e+00
1.2350943e+01 4.8577638e+00 4.2594840e+00
1.2390593e+01 4.7358838e+00 4.1271342e+00
1.2426613e+01 4.6112003e+00 3.9961616e+00
1.2459004e+01 4.4837133e+00 3.8665660e+00
1.2487766e+01 4.3534228e+00 3.7383476e+00
1.2512898e+01 4.2203289e+00 3.6115064e+00
1.2534400e+01 4.0844315e+00 3.4860422e+00
1.2534400e+01 4.0844315e+00 3.4860422e+00
1.2552026e+01 3.9458274e+00 3.3627006e+00
1.2563357e+01 3.8068117e+00 3.2397209e+00
1.2568395e+01 3.6673844e+00 3.1171032e+00
1.2567138e+01 3.5275454e+00 2.9948473e+00
1.2559587e+01 3.3872948e+00 2.8729534e+00
1.2545741e+01 3.2466325e+00 2.7514214e+00
1.2545741e+01 3.2466325e+00 2.7514214e+00
1.2523531e+01 3.1043064e+00 2.6319196e+00
1.2493778e+01 2.9620514e+00 2.5146971e+00
1.2456482e+01 2.8198678e+00 2.3997538e+00
1.2411642e+01 2.6777554e+00 2.2870899e+00
1.2359260e+01 2.5357142e+00 2.1767053e+00
1.2299335e+01 2.3937443e+00 2.0685999e+00
1.2299335e+01 2.3937443e+00 2.0685999e+00
1.2233293e+01 2.2557998e+00 1.9593922e+00
1.2162163e+01 2.1188759e+00 1.8523456e+00
1.2085946e+01 1.9829727e+00 1.7474600e+00
1.2004641e+01 1.8480900e+00 1.6447356e+00
1.1918248e+01 1.7142281e+00 1.5441722e+00
1.1826768e+01 1.5813867e+00 1.4457699e+00
1.1826768e+01 1.5813867e+00 1.4457699e+00
1.1725479e+01 1.4509698e+00 1.3526166e+00
1.1621788e+01 1.3213796e+00 1.2613850e+00
1.1515693e+01 1.1926160e+00 1.1720753e+00
1.1407196e+01 1.0646791e+00 1.0846874e+00
1.1296296e+01 9.3756892e-01 9.9922126e-01
1.1182992e+01 8.1128539e-01 9.1567697e-01
1.1182992e+01 8.1128539e-01 9.1567697e-01
1.1071196e+01 6.8118356e-01 8.3172966e-01
1.0959110e+01 5.5157467e-01 7.4843577e-01
1.0846733e+01 4.2245870e-01 6.6579529e-01
1.0734066e+01 2.9383567e-01 5.8380822e-01
1.0621109e+01 1.6570557e-01 5.0247457e-01
1.0507861e+01 3.8068400e-02 4.2179433e-01
4.4412900e+00 6.6160821e+00 1.1745382e+01
4.3918020e+00 6.5629353e+00 1.1568415e+01
4.3406686e+00 6.5031711e+00 1.1394586e+01
4.2878898e+00 6.4367895e+00 1.1223897e+01
4.2334657e+00 6.3637905e+00 1.1056346e+01
4.1773961e+00 6.2841741e+00 1.0891935e+01
4.1196812e+00 6.1979403e+00 1.0730663e+01
4.1196812e+00 6.1979403e+00 1.0730663e+01
4.0761463e+00 6.1327364e+00 1.0556135e+01
4.0380741e+00 6.0653774e+00 1.0381630e+01
4.0054646e+00 5.9958631e+00 1.0207148e+01
3.9783178e+00 5.9241936e+00 1.0032688e+01
3.9566338e+00 5.8503688e+00 9.8582518e+00
3.9404126e+00 5.7743889e+00 9.6838382e+00
3.9404126e+00 5.7743889e+00 9.6838382e+00
3.9316134e+00 5.6944996e+00 9.5099779e+00
3.9297751e+00 5.6111610e+00 9.3386385e+00
3.9348976e+00 5.5243730e+00 9.1698200e+00
3.9469809e+00 5.4341355e+00 9.0035223e+00
3.9660252e+00 5.3404487e+00 8.8397455e+00
3.9920302e+00 5.2433125e+00 8.6784895e+00
3.9920302e+00 5.2433125e+00 8.6784895e+00
4.0391340e+00 5.1374515e+00 8.5252257e+00
4.0993844e+00 5.0286507e+00 8.3828365e+00
4.1727816e+00 4.9169103e+00 8.2513222e+00
4.2593255e+00 4.8022301e+00 8.1306825e+00
4.3590160e+00 4.6846103e+00 8.0209176e+00
4.4718533e+00 4.5640507e+00 7.9220274e+00
4.4718533e+00 4.5640507e+00 7.9220274e+00
4.5816343e+00 4.4450718e+00 7.8239619e+00
4.6911936e+00 4.3256226e+00 7.7263976e+00
4.8005312e+00 4.2057034e+00 7.6293345e+00
4.9096470e+00 4.0853139e+00 7.5327725e+00
5.0185411e+00 3.9644543e+00 7.4367117e+00
5.1272135e+00 3.8431246e+00 7.3411520e+00
5.1272135e+00 3.8431246e+00 7.3411520e+00
5.2365225e+00 3.7183992e+00 7.2490457e+00
5.3404824e+00 3.5911062e+00 7.1549762e+00
5.4390932e+00 3.4612457e+00 7.0589436e+00
5.5323549e+00 3.3288175e+00 6.9609478e+00
5.6202675e+00 3.1938218e+00 6.8609888e+00
5.7028309e+00 3.0562584e+00 6.7590666e+00
5.7028309e+00 3.0562584e+00 6.7590666e+00
5.7759388e+00 2.9170407e+00 6.6510724e+00
5.8378511e+00 2.7780547e+00 6.5379508e+00
5.8885678e+00 2.6393003e+00 6.4197019e+00
5.9280888e+00 2.5007776e+00 6.2963257e+00
5.9564143e+00 2.3624865e+00 6.1678221e+00
5.9735442e+00 2.2244270e+00 6.0341913e+00
5.9735442e+00 2.2244270e+00 6.0341913e+00
5.9744366e+00 2.0894855e+00 5.8963063e+00
5.9656161e+00 1.9562087e+00 5.7583881e+00
5.9470828e+00 1.8245967e+00 5.6204368e+00
5.9188366e+00 1.6946495e+00 5.4824522e+00
5.8808776e+00 1.5663671e+00 5.3444345e+00
5.8332056e+00 1.4397494e+00 5.2063836e+00
5.8332056e+00 1.4397494e+00 5.2063836e+00
5.7806119e+00 1.3163779e+00 5.0667660e+00
5.7244250e+00 1.1948732e+00 4.9271061e+00
5.6646450e+00 1.0752352e+00 4.7874039e+00
5.6012719e+00 9.5746392e-01 4.6476594e+00
5.5343057e+00 8.4155933e-01 4.5078725e+00
5.4637464e+00 7.2752146e-01 4.3680433e+00
5.4637464e+00 7.2752146e-01 4.3680433e+00
5.3915044e+00 6.0856910e-01 4.2329439e+00
5.3183724e+00 4.8943867e-01 4.0984670e+00
5.2443504e+00 3.7013018e-01 3.9646126e+00
5.1694384e+00 2.5064362e-01 3.8313807e+00
5.0936365e+00 1.3097899e-01 3.6987712e+00
5.0169447e+00 1.1136300e-02 3.5667842e+00
3.2223300e+00 6.4269244e+00 1.3801294e+01
3.3068197e+00 6.5387175e+00 1.3663394e+01
3.4025734e+00 6.6476537e+00 1.3534732e+01
3.5095911e+00 6.7537332e+00 1.3415308e+01
3.6278728e+00 6.8569559e+00 1.3305121e+01
3.7574185e+00 6.9573218e+00 1.3204173e+01
3.8982282e+00 7.0548309e+00 1.3112463e+01
3.8982282e+00 7.0548309e+00 1.3112463e+01
4.0680863e+00 7.1318182e+00 1.3058241e+01
4.2430103e+00 7.1977237e+00 1.3015580e+01
4.4230000e+00 7.2525474e+00 1.2984478e+01
4.6080555e+00 7.2962892e+00 1.2964936e+01
4.7981769e+00 7.3289492e+00 1.2956955e+01
4.9933640e+00 7.3505274e+00 1.2960534e+01
4.9933640e+00 7.3505274e+00 1.2960534e+01
5.1890546e+00 7.3634873e+00 1.2965056e+01
5.3807149e+00 7.3780938e+00 1.2952661e+01
5.5683448e+00 7.3943469e+00 1.2923350e+01
5.7519443e+00 7.4122466e+00 1.2877123e+01
5.9315136e+00 7.4317929e+00 1.2813980e+01
6.1070525e+00 7.4529858e+00 1.2733920e+01
6.1070525e+00 7.4529858e+00 1.2733920e+01
6.2570649e+00 7.4836311e+00 1.2613257e+01
6.3958429e+00 7.5107672e+00 1.2482311e+01
6.5233867e+00 7.5343939e+00 1.2341082e+01
6.6396962e+00 7.5545114e+00 1.2189571e+01
[...]
POINT_DATA 4361
VECTORS U float
3.5417100e+00 1.1213700e+00 -1.1557000e-02
3.5660322e+00 1.0947550e+00 2.0086556e-03
3.5885589e+00 1.0657783e+00 1.3389156e-02
3.6092900e+00 1.0344400e+00 2.2584500e-02
3.6282256e+00 1.0007400e+00 2.9594689e-02
3.6453656e+00 9.6467833e-01 3.4419722e-02
3.6607100e+00 9.2625500e-01 3.7059600e-02
3.6607100e+00 9.2625500e-01 3.7059600e-02
3.6723456e+00 8.9889233e-01 3.9222002e-02
3.6820422e+00 8.6990033e-01 3.7610902e-02
3.6898000e+00 8.3927900e-01 3.2226300e-02
3.6956189e+00 8.0702833e-01 2.3068196e-02
3.6994989e+00 7.7314833e-01 1.0136589e-02
3.7014400e+00 7.3763900e-01 -6.5685200e-03
3.7014400e+00 7.3763900e-01 -6.5685200e-03
3.7100111e+00 6.9530478e-01 -1.6150944e-02
3.7176078e+00 6.5565611e-01 -2.0487971e-02
3.7242300e+00 6.1869300e-01 -1.9579600e-02
3.7298778e+00 5.8441544e-01 -1.3425831e-02
3.7345511e+00 5.5282344e-01 -2.0266644e-03
3.7382500e+00 5.2391700e-01 1.4617900e-02
3.7382500e+00 5.2391700e-01 1.4617900e-02
3.7409700e+00 4.9581356e-01 1.8971156e-02
3.7432867e+00 4.6965189e-01 2.2502489e-02
3.7452000e+00 4.4543200e-01 2.5211900e-02
3.7467100e+00 4.2315389e-01 2.7099389e-02
3.7478167e+00 4.0281756e-01 2.8164956e-02
3.7485200e+00 3.8442300e-01 2.8408600e-02
3.7485200e+00 3.8442300e-01 2.8408600e-02
3.7482500e+00 3.6676622e-01 3.2025389e-02
3.7480000e+00 3.5041522e-01 3.4637689e-02
3.7477700e+00 3.3537000e-01 3.6245500e-02
3.7475600e+00 3.2163056e-01 3.6848822e-02
3.7473700e+00 3.0919689e-01 3.6447656e-02
3.7472000e+00 2.9806900e-01 3.5042000e-02
3.7472000e+00 2.9806900e-01 3.5042000e-02
3.7467989e+00 2.8709822e-01 3.4219030e-02
3.7457956e+00 2.7762122e-01 3.1636930e-02
3.7441900e+00 2.6963800e-01 2.7295700e-02
3.7419822e+00 2.6314856e-01 2.1195340e-02
3.7391722e+00 2.5815289e-01 1.3335850e-02
3.7357600e+00 2.5465100e-01 3.7172300e-03
3.7357600e+00 2.5465100e-01 3.7172300e-03
3.7316811e+00 2.5321778e-01 -5.6563611e-03
3.7260244e+00 2.5650111e-01 -1.5628438e-02
3.7187900e+00 2.6450100e-01 -2.6199000e-02
3.7099778e+00 2.7721744e-01 -3.7368048e-02
3.6995878e+00 2.9465044e-01 -4.9135581e-02
3.6876200e+00 3.1680000e-01 -6.1501600e-02
3.6876200e+00 3.1680000e-01 -6.1501600e-02
3.6676367e+00 3.6973878e-01 -7.5439111e-02
3.6499933e+00 4.1828411e-01 -8.8375578e-02
3.6346900e+00 4.6243600e-01 -1.0031100e-01
3.6217267e+00 5.0219444e-01 -1.1124538e-01
3.6111033e+00 5.3755944e-01 -1.2117871e-01
3.6028200e+00 5.6853100e-01 -1.3011100e-01
3.6028200e+00 5.6853100e-01 -1.3011100e-01
3.5837244e+00 5.5322767e-01 -1.1465197e-01
3.5628111e+00 5.3396300e-01 -9.4249000e-02
3.5400800e+00 5.1073700e-01 -6.8902100e-02
3.5155311e+00 4.8354967e-01 -3.8611267e-02
3.4891644e+00 4.5240100e-01 -3.3765000e-03
3.4609800e+00 4.1729100e-01 3.6802200e-02
3.4609800e+00 4.1729100e-01 3.6802200e-02
3.4290844e+00 4.0707311e-01 6.1437333e-02
3.3956344e+00 3.9636244e-01 8.6397933e-02
3.3606300e+00 3.8515900e-01 1.1168400e-01
3.3240711e+00 3.7346278e-01 1.3729553e-01
3.2859578e+00 3.6127378e-01 1.6323253e-01
3.2462900e+00 3.4859200e-01 1.8949500e-01
3.2462900e+00 3.4859200e-01 1.8949500e-01
3.2037222e+00 3.4399867e-01 2.1045300e-01
3.1587089e+00 3.3899667e-01 2.3004100e-01
3.1112500e+00 3.3358600e-01 2.4825900e-01
3.0613456e+00 3.2776667e-01 2.6510700e-01
3.0089956e+00 3.2153867e-01 2.8058500e-01
2.9542000e+00 3.1490200e-01 2.9469300e-01
2.9542000e+00 3.1490200e-01 2.9469300e-01
2.9029056e+00 3.0755733e-01 3.0566900e-01
2.8487956e+00 2.9963233e-01 3.1371567e-01
2.7918700e+00 2.9112700e-01 3.1883300e-01
2.7321289e+00 2.8204133e-01 3.2102100e-01
2.6695722e+00 2.7237533e-01 3.2027967e-01
2.6042000e+00 2.6212900e-01 3.1660900e-01
2.6042000e+00 2.6212900e-01 3.1660900e-01
2.5397278e+00 2.5019156e-01 3.1006733e-01
2.4766844e+00 2.3653856e-01 3.0280267e-01
2.4150700e+00 2.2117000e-01 2.9481500e-01
2.3548844e+00 2.0408589e-01 2.8610433e-01
2.2961278e+00 1.8528622e-01 2.7667067e-01
2.2388000e+00 1.6477100e-01 2.6651400e-01
2.2388000e+00 1.6477100e-01 2.6651400e-01
2.1800144e+00 1.4309309e-01 2.5589100e-01
2.1213511e+00 1.2188309e-01 2.4418367e-01
2.0628100e+00 1.0114100e-01 2.3139200e-01
2.0043911e+00 8.0866822e-02 2.1751600e-01
1.9460944e+00 6.1060556e-02 2.0255567e-01
1.8879200e+00 4.1722200e-02 1.8651100e-01
1.8879200e+00 4.1722200e-02 1.8651100e-01
1.8285811e+00 2.3170811e-02 1.6990199e-01
1.7671344e+00 3.9198444e-03 1.5392866e-01
1.7035800e+00 -1.6030700e-02 1.3859100e-01
1.6379178e+00 -3.6680822e-02 1.2388902e-01
1.5701478e+00 -5.8030522e-02 1.0982272e-01
1.5002700e+00 -8.0079800e-02 9.6392100e-02
1.5002700e+00 -8.0079800e-02 9.6392100e-02
1.4293900e+00 -1.0200256e-01 8.5030956e-02
1.3575967e+00 -1.2115062e-01 7.4060889e-02
1.2848900e+00 -1.3752400e-01 6.3481900e-02
1.2112700e+00 -1.5112269e-01 5.3293989e-02
1.1367367e+00 -1.6194669e-01 4.3497156e-02
1.0612900e+00 -1.6999600e-01 3.4091400e-02
1.0612900e+00 -1.6999600e-01 3.4091400e-02
9.8563244e-01 -1.7567533e-01 2.7155056e-02
9.1231978e-01 -1.7881933e-01 2.1857922e-02
8.4135200e-01 -1.7942800e-01 1.8200000e-02
7.7272911e-01 -1.7750133e-01 1.6181289e-02
7.0645111e-01 -1.7303933e-01 1.5801789e-02
6.4251800e-01 -1.6604200e-01 1.7061500e-02
6.4251800e-01 -1.6604200e-01 1.7061500e-02
5.8485000e-01 -1.5407711e-01 1.5449451e-02
5.3139833e-01 -1.4160011e-01 1.3902751e-02
4.8216300e-01 -1.2861100e-01 1.2421400e-02
4.3714400e-01 -1.1510978e-01 1.1005398e-02
3.9634133e-01 -1.0109644e-01 9.6547444e-03
3.5975500e-01 -8.6571000e-02 8.3694400e-03
3.5975500e-01 -8.6571000e-02 8.3694400e-03
3.2043467e-01 -7.1612036e-02 9.7926778e-03
2.8348033e-01 -5.7187036e-02 1.1404731e-02
2.4889200e-01 -4.3296000e-02 1.3205600e-02
2.1666967e-01 -2.9938929e-02 1.5195284e-02
1.8681333e-01 -1.7115822e-02 1.7373784e-02
1.5932300e-01 -4.8266800e-03 1.9741100e-02
1.5932300e-01 -4.8266800e-03 1.9741100e-02
1.3585564e-01 2.4459111e-03 2.0498722e-02
1.1344034e-01 9.6691378e-03 2.1324922e-02
9.2077100e-02 1.6843000e-02 2.2219700e-02
7.1765911e-02 2.3967498e-02 2.3183056e-02
5.2506778e-02 3.1042631e-02 2.4214989e-02
3.4299700e-02 3.8068400e-02 2.5315500e-02
3.2231700e+00 1.4045700e+00 1.0082700e-01
3.1962689e+00 1.3876544e+00 1.1138033e-01
3.1654222e+00 1.3647078e+00 1.2515333e-01
3.1306300e+00 1.3357300e+00 1.4214600e-01
3.0918922e+00 1.3007211e+00 1.6235833e-01
3.0492089e+00 1.2596811e+00 1.8579033e-01
3.0025800e+00 1.2126100e+00 2.1244200e-01
3.0025800e+00 1.2126100e+00 2.1244200e-01
2.9656389e+00 1.1877733e+00 2.2644156e-01
2.9261989e+00 1.1626300e+00 2.3940889e-01
2.8842600e+00 1.1371800e+00 2.5134400e-01
2.8398222e+00 1.1114233e+00 2.6224689e-01
2.7928856e+00 1.0853600e+00 2.7211756e-01
2.7434500e+00 1.0589900e+00 2.8095600e-01
2.7434500e+00 1.0589900e+00 2.8095600e-01
2.6886911e+00 1.0315109e+00 2.8789989e-01
2.6292578e+00 1.0027752e+00 2.9131722e-01
2.5651500e+00 9.7278300e-01 2.9120800e-01
2.4963678e+00 9.4153422e-01 2.8757222e-01
2.4229111e+00 9.0902889e-01 2.8040989e-01
2.3447800e+00 8.7526700e-01 2.6972100e-01
2.3447800e+00 8.7526700e-01 2.6972100e-01
2.2768544e+00 8.3433756e-01 2.5704722e-01
2.2159644e+00 7.9176689e-01 2.4810256e-01
2.1621100e+00 7.4755500e-01 2.4288700e-01
2.1152911e+00 7.0170189e-01 2.4140056e-01
2.0755078e+00 6.5420756e-01 2.4364322e-01
2.0427600e+00 6.0507200e-01 2.4961500e-01
2.0427600e+00 6.0507200e-01 2.4961500e-01
2.0046289e+00 5.5850811e-01 2.5091822e-01
1.9651856e+00 5.1312178e-01 2.4956989e-01
1.9244300e+00 4.6891300e-01 2.4557000e-01
1.8823622e+00 4.2588178e-01 2.3891856e-01
1.8389822e+00 3.8402811e-01 2.2961556e-01
1.7942900e+00 3.4335200e-01 2.1766100e-01
1.7942900e+00 3.4335200e-01 2.1766100e-01
1.7507400e+00 3.0132709e-01 2.0807900e-01
1.7040533e+00 2.5962942e-01 1.9728800e-01
1.6542300e+00 2.1825900e-01 1.8528800e-01
1.6012700e+00 1.7721582e-01 1.7207900e-01
1.5451733e+00 1.3649989e-01 1.5766100e-01
1.4859400e+00 9.6111200e-02 1.4203400e-01
1.4859400e+00 9.6111200e-02 1.4203400e-01
1.4208011e+00 5.8028328e-02 1.2321377e-01
1.3518911e+00 2.4195971e-02 1.0360417e-01
1.2792100e+00 -5.3858700e-03 8.3205200e-02
1.2027578e+00 -3.0717196e-02 6.2016867e-02
1.1225344e+00 -5.1798006e-02 4.0039167e-02
1.0385400e+00 -6.8628300e-02 1.7272100e-02
1.0385400e+00 -6.8628300e-02 1.7272100e-02
9.5072567e-01 -7.7725667e-02 -3.0311778e-03
8.6576000e-01 -8.3601033e-02 -1.9300344e-02
7.8364300e-01 -8.6254400e-02 -3.1535400e-02
7.0437467e-01 -8.5685767e-02 -3.9736344e-02
6.2795500e-01 -8.1895133e-02 -4.3903178e-02
5.5438400e-01 -7.4882500e-02 -4.4035900e-02
5.5438400e-01 -7.4882500e-02 -4.4035900e-02
4.8898489e-01 -6.6013556e-02 -4.4031956e-02
4.2811622e-01 -5.6470822e-02 -4.3361456e-02
3.7177800e-01 -4.6254300e-02 -4.2024400e-02
3.1997022e-01 -3.5363989e-02 -4.0020789e-02
2.7269289e-01 -2.3799889e-02 -3.7350622e-02
2.2994600e-01 -1.1562000e-02 -3.4013900e-02
2.2994600e-01 -1.1562000e-02 -3.4013900e-02
1.8992612e-01 -5.7770000e-03 -2.6374494e-02
1.5130746e-01 -7.9278000e-04 -1.8174011e-02
1.1409000e-01 3.3906600e-03 -9.4124500e-03
7.8273756e-02 6.7733200e-03 -8.9811111e-05
4.3858722e-02 9.3552000e-03 9.7939056e-03
1.0844900e-02 1.1136300e-02 2.0238700e-02
3.2223300e+00 1.4572200e+00 -1.1848900e-01
3.2561222e+00 1.4659389e+00 -9.7002152e-02
3.2878156e+00 1.4703656e+00 -7.6420552e-02
3.3174100e+00 1.4705000e+00 -5.6744200e-02
3.3449056e+00 1.4663422e+00 -3.7973096e-02
3.3703022e+00 1.4578922e+00 -2.0107239e-02
3.3936000e+00 1.4451500e+00 -3.1466300e-03
3.3936000e+00 1.4451500e+00 -3.1466300e-03
3.4116644e+00 1.4176733e+00 6.6921611e-03
3.4277078e+00 1.3879033e+00 1.2011871e-02
3.4417300e+00 1.3558400e+00 1.2812500e-02
3.4537311e+00 1.3214833e+00 9.0940478e-03
3.4637111e+00 1.2848333e+00 8.5651444e-04
3.4716700e+00 1.2458900e+00 -1.1900100e-02
3.4716700e+00 1.2458900e+00 -1.1900100e-02
3.4785789e+00 1.2030878e+00 -2.2746856e-02
3.4840889e+00 1.1667944e+00 -3.1656822e-02
3.4882000e+00 1.1370100e+00 -3.8630000e-02
3.4909122e+00 1.1137344e+00 -4.3666389e-02
3.4922256e+00 1.0969678e+00 -4.6765989e-02
3.4921400e+00 1.0867100e+00 -4.7928800e-02
3.4921400e+00 1.0867100e+00 -4.7928800e-02
3.4963100e+00 1.0939033e+00 -4.2283944e-02
3.5021167e+00 1.1005300e+00 -3.6472244e-02
3.5095600e+00 1.1065900e+00 -3.0493700e-02
3.5186400e+00 1.1120833e+00 -2.4348311e-02
3.5293567e+00 1.1170100e+00 -1.8036078e-02
3.5417100e+00 1.1213700e+00 -1.1557000e-02
3.1694800e+00 1.4304900e+00 -1.3051200e-03
3.1824200e+00 1.4334256e+00 2.6707711e-02
3.1937633e+00 1.4334589e+00 5.0324218e-02
3.2035100e+00 1.4305900e+00 6.9544400e-02
3.2116600e+00 1.4248189e+00 8.4368258e-02
3.2182133e+00 1.4161456e+00 9.4795791e-02
3.2231700e+00 1.4045700e+00 1.0082700e-01
3.6028200e+00 5.6853100e-01 -1.3011100e-01
3.5541989e+00 5.0955567e-01 -1.2467104e-01
3.5028956e+00 4.5222167e-01 -1.1668404e-01
3.4489100e+00 3.9652900e-01 -1.0615000e-01
3.3922422e+00 3.4247767e-01 -9.3068911e-02
3.3328922e+00 2.9006767e-01 -7.7440778e-02
3.2708600e+00 2.3929900e-01 -5.9265600e-02
3.2708600e+00 2.3929900e-01 -5.9265600e-02
3.2330167e+00 2.0428467e-01 -4.7164978e-02
3.1929200e+00 1.7309300e-01 -3.2733711e-02
3.1505700e+00 1.4572400e-01 -1.5971800e-02
3.1059667e+00 1.2217767e-01 3.1207556e-03
3.0591100e+00 1.0245400e-01 2.4543956e-02
3.0100000e+00 8.6553000e-02 4.8297800e-02
3.0100000e+00 8.6553000e-02 4.8297800e-02
2.9537333e+00 7.0083422e-02 7.0001444e-02
2.8969933e+00 5.5271956e-02 8.8713511e-02
2.8397800e+00 4.2118600e-02 1.0443400e-01
2.7820933e+00 3.0623356e-02 1.1716291e-01
2.7239333e+00 2.0786222e-02 1.2690024e-01
2.6653000e+00 1.2607200e-02 1.3364600e-01
2.6653000e+00 1.2607200e-02 1.3364600e-01
2.6002922e+00 5.7695444e-03 1.3482500e-01
2.5355889e+00 7.5577778e-06 1.3300533e-01
2.4711900e+00 -4.6787600e-03 1.2818700e-01
2.4070956e+00 -8.2894089e-03 1.2037000e-01
2.3433056e+00 -1.0824389e-02 1.0955433e-01
2.2798200e+00 -1.2283700e-02 9.5740000e-02
2.2798200e+00 -1.2283700e-02 9.5740000e-02
2.2243100e+00 -1.0056467e-02 8.4955656e-02
2.1704133e+00 -6.7157733e-03 7.3904756e-02
2.1181300e+00 -2.2616200e-03 6.2587300e-02
2.0674600e+00 3.3059933e-03 5.1003289e-02
2.0184033e+00 9.9870667e-03 3.9152722e-02
1.9709600e+00 1.7781600e-02 2.7035600e-02
1.9709600e+00 1.7781600e-02 2.7035600e-02
1.9232400e+00 2.3994344e-02 1.3075378e-02
1.8753167e+00 3.0816244e-02 -9.5098889e-04
1.8271900e+00 3.8247300e-02 -1.5043500e-02
1.7788600e+00 4.6287511e-02 -2.9202156e-02
1.7303267e+00 5.4936878e-02 -4.3426956e-02
1.6815900e+00 6.4195400e-02 -5.7717900e-02
1.6815900e+00 6.4195400e-02 -5.7717900e-02
1.6353178e+00 7.1927944e-02 -7.0907111e-02
1.5867111e+00 8.1075111e-02 -8.2828644e-02
1.5357700e+00 9.1636900e-02 -9.3482500e-02
1.4824944e+00 1.0361331e-01 -1.0286868e-01
1.4268844e+00 1.1700434e-01 -1.1098718e-01
1.3689400e+00 1.3181000e-01 -1.1783800e-01
1.3689400e+00 1.3181000e-01 -1.1783800e-01
1.3053762e+00 1.4993900e-01 -1.2336733e-01
1.2411496e+00 1.6515933e-01 -1.2755067e-01
1.1762600e+00 1.7747100e-01 -1.3038800e-01
1.1107076e+00 1.8687400e-01 -1.3187933e-01
1.0444922e+00 1.9336833e-01 -1.3202467e-01
9.7761400e-01 1.9695400e-01 -1.3082400e-01
9.7761400e-01 1.9695400e-01 -1.3082400e-01
9.0454767e-01 1.9761467e-01 -1.2860904e-01
8.3410100e-01 1.9599567e-01 -1.2326538e-01
7.6627400e-01 1.9209700e-01 -1.1479300e-01
7.0106667e-01 1.8591867e-01 -1.0319191e-01
6.3847900e-01 1.7746067e-01 -8.8462111e-02
5.7851100e-01 1.6672300e-01 -7.0603600e-02
5.7851100e-01 1.6672300e-01 -7.0603600e-02
5.1281122e-01 1.5933164e-01 -3.8252600e-02
4.4969156e-01 1.4983964e-01 -8.1543333e-03
3.8915200e-01 1.3824700e-01 1.9691200e-02
3.3119256e-01 1.2455371e-01 4.5284000e-02
2.7581322e-01 1.0875978e-01 6.8624067e-02
2.2301400e-01 9.0865200e-02 8.9711400e-02
2.2301400e-01 9.0865200e-02 8.9711400e-02
1.9454773e-01 7.6431667e-02 7.7056850e-02
1.6412873e-01 5.9944633e-02 6.3335783e-02
1.3175700e-01 4.1404100e-02 4.8548200e-02
9.7432533e-02 2.0810067e-02 3.2694100e-02
6.1155333e-02 -1.8374667e-03 1.5773483e-02
2.2925400e-02 -2.6538500e-02 -2.2136500e-03
1.0851500e+01 6.5873700e-01 1.4325400e-01
1.0824733e+01 6.0000433e-01 1.6009133e-01
1.0796733e+01 5.4371800e-01 1.7646867e-01
1.0767500e+01 4.8987800e-01 1.9238600e-01
1.0737033e+01 4.3848433e-01 2.0784333e-01
1.0705333e+01 3.8953700e-01 2.2284067e-01
1.0672400e+01 3.4303600e-01 2.3737800e-01
1.0672400e+01 3.4303600e-01 2.3737800e-01
1.0641956e+01 3.0897733e-01 2.4936233e-01
1.0609889e+01 2.8364233e-01 2.5994700e-01
1.0576200e+01 2.6703100e-01 2.6913200e-01
1.0540889e+01 2.5914333e-01 2.7691733e-01
1.0503956e+01 2.5997933e-01 2.8330300e-01
1.0465400e+01 2.6953900e-01 2.8828900e-01
1.0465400e+01 2.6953900e-01 2.8828900e-01
1.0429622e+01 2.7678333e-01 2.9028678e-01
1.0391656e+01 2.8546533e-01 2.9228711e-01
1.0351500e+01 2.9558500e-01 2.9429000e-01
1.0309156e+01 3.0714233e-01 2.9629544e-01
1.0264622e+01 3.2013733e-01 2.9830344e-01
1.0217900e+01 3.3457000e-01 3.0031400e-01
1.0217900e+01 3.3457000e-01 3.0031400e-01
1.0154968e+01 3.5472222e-01 3.0717667e-01
1.0094268e+01 3.6509856e-01 3.1376533e-01
1.0035800e+01 3.6569900e-01 3.2008000e-01
9.9795644e+00 3.5652356e-01 3.2612067e-01
9.9255611e+00 3.3757222e-01 3.3188733e-01
9.8737900e+00 3.0884500e-01 3.3738000e-01
9.8737900e+00 3.0884500e-01 3.3738000e-01
9.8313956e+00 2.7437736e-01 3.3286300e-01
9.7911689e+00 2.3951636e-01 3.2523300e-01
9.7531100e+00 2.0426200e-01 3.1449000e-01
9.7172189e+00 1.6861429e-01 3.0063400e-01
9.6834956e+00 1.3257322e-01 2.8366500e-01
9.6519400e+00 9.6138800e-02 2.6358300e-01
9.6519400e+00 9.6138800e-02 2.6358300e-01
9.6163367e+00 1.3550344e-01 2.6745311e-01
9.5767933e+00 1.7280584e-01 2.6973044e-01
9.5333100e+00 2.0804600e-01 2.7041500e-01
9.4858867e+00 2.4122391e-01 2.6950678e-01
9.4345233e+00 2.7233958e-01 2.6700578e-01
9.3792200e+00 3.0139300e-01 2.6291200e-01
9.3792200e+00 3.0139300e-01 2.6291200e-01
9.3233733e+00 3.2237189e-01 2.4971222e-01
9.2693867e+00 3.3553822e-01 2.3350622e-01
9.2172600e+00 3.4089200e-01 2.1429400e-01
9.1669933e+00 3.3843322e-01 1.9207556e-01
9.1185867e+00 3.2816189e-01 1.6685089e-01
9.0720400e+00 3.1007800e-01 1.3862000e-01
9.0720400e+00 3.1007800e-01 1.3862000e-01
9.0272833e+00 2.8139844e-01 1.1754537e-01
8.9796733e+00 2.5260111e-01 9.5616206e-02
8.9292100e+00 2.2368600e-01 7.2832500e-02
8.8758933e+00 1.9465311e-01 4.9194256e-02
8.8197233e+00 1.6550244e-01 2.4701472e-02
8.7607000e+00 1.3623400e-01 -6.4585000e-04
8.7607000e+00 1.3623400e-01 -6.4585000e-04
8.6918044e+00 1.1209961e-01 -3.0137417e-02
8.6202978e+00 9.6570178e-02 -5.6102100e-02
8.5461800e+00 8.9645700e-02 -7.8539900e-02
8.4694511e+00 9.1326178e-02 -9.7450817e-02
8.3901111e+00 1.0161161e-01 -1.1283485e-01
8.3081600e+00 1.2050200e-01 -1.2469200e-01
8.3081600e+00 1.2050200e-01 -1.2469200e-01
8.2316922e+00 1.5205900e-01 -1.2679011e-01
8.1617622e+00 1.8303767e-01 -1.2825178e-01
8.0983700e+00 2.1343800e-01 -1.2907700e-01
8.0415156e+00 2.4326000e-01 -1.2926578e-01
7.9911989e+00 2.7250367e-01 -1.2881811e-01
7.9474200e+00 3.0116900e-01 -1.2773400e-01
8.1187500e+00 3.7115600e-01 -1.8054200e-01
8.0994256e+00 3.5280067e-01 -1.7417178e-01
8.0764089e+00 3.3712167e-01 -1.6682911e-01
8.0497000e+00 3.2411900e-01 -1.5851400e-01
8.0192989e+00 3.1379267e-01 -1.4922644e-01
7.9852056e+00 3.0614267e-01 -1.3896644e-01
7.9474200e+00 3.0116900e-01 -1.2773400e-01
1.0336200e+01 7.1119400e-01 1.7442900e-01
1.0301356e+01 6.8899222e-01 1.5357499e-01
1.0265256e+01 6.6599622e-01 1.3083932e-01
1.0227900e+01 6.4220600e-01 1.0622200e-01
1.0189289e+01 6.1762156e-01 7.9723022e-02
1.0149422e+01 5.9224289e-01 5.1342389e-02
1.0108300e+01 5.6607000e-01 2.1080100e-02
1.0108300e+01 5.6607000e-01 2.1080100e-02
1.0065587e+01 5.3076044e-01 -1.1016944e-02
1.0023953e+01 4.9707944e-01 -3.4800778e-02
9.9834000e+00 4.6502700e-01 -5.0271400e-02
9.9439267e+00 4.3460311e-01 -5.7428811e-02
9.9055333e+00 4.0580778e-01 -5.6273011e-02
9.8682200e+00 3.7864100e-01 -4.6804000e-02
9.8682200e+00 3.7864100e-01 -4.6804000e-02
9.8178289e+00 3.7487411e-01 -1.0181944e-02
9.7648956e+00 3.7398678e-01 2.5447956e-02
9.7094200e+00 3.7597900e-01 6.0085700e-02
9.6514022e+00 3.8085078e-01 9.3731289e-02
9.5908422e+00 3.8860211e-01 1.2638472e-01
9.5277400e+00 3.9923300e-01 1.5804600e-01
9.5277400e+00 3.9923300e-01 1.5804600e-01
9.4658544e+00 4.0700778e-01 1.8670322e-01
9.4006578e+00 4.1142878e-01 2.1321956e-01
9.3321500e+00 4.1249600e-01 2.3759500e-01
9.2603311e+00 4.1020944e-01 2.5982956e-01
9.1852011e+00 4.0456911e-01 2.7992322e-01
9.1067600e+00 3.9557500e-01 2.9787600e-01
9.1067600e+00 3.9557500e-01 2.9787600e-01
9.0189189e+00 3.6752544e-01 2.7393162e-01
8.9279356e+00 3.4806978e-01 2.3991929e-01
8.8338100e+00 3.3720800e-01 1.9583900e-01
8.7365422e+00 3.3494011e-01 1.4169076e-01
8.6361322e+00 3.4126611e-01 7.7474572e-02
8.5325800e+00 3.5618600e-01 3.1904300e-03
8.5325800e+00 3.5618600e-01 3.1904300e-03
8.4417444e+00 3.6969211e-01 -5.1027872e-02
8.3596544e+00 3.7879378e-01 -9.5807682e-02
8.2863100e+00 3.8349100e-01 -1.3114900e-01
8.2217111e+00 3.8378378e-01 -1.5705183e-01
8.1658578e+00 3.7967211e-01 -1.7351616e-01
8.1187500e+00 3.7115600e-01 -1.8054200e-01
6.0512000e+00 7.3278100e-01 -1.6003400e-01
6.0998400e+00 6.8862744e-01 -1.4683989e-01
6.1571600e+00 6.4505011e-01 -1.3731656e-01
6.2231600e+00 6.0204900e-01 -1.3146400e-01
6.2978400e+00 5.5962411e-01 -1.2928222e-01
6.3812000e+00 5.1777544e-01 -1.3077122e-01
6.4732400e+00 4.7650300e-01 -1.3593100e-01
6.4732400e+00 4.7650300e-01 -1.3593100e-01
6.5781544e+00 4.6035656e-01 -1.3550567e-01
6.6860244e+00 4.5380089e-01 -1.3324367e-01
6.7968500e+00 4.5683600e-01 -1.2914500e-01
6.9106311e+00 4.6946189e-01 -1.2320967e-01
7.0273678e+00 4.9167856e-01 -1.1543767e-01
7.1470600e+00 5.2348600e-01 -1.0582900e-01
7.1470600e+00 5.2348600e-01 -1.0582900e-01
7.2568222e+00 5.5851744e-01 -1.0392156e-01
7.3638422e+00 5.8448678e-01 -1.0396189e-01
7.4681200e+00 6.0139400e-01 -1.0595000e-01
7.5696556e+00 6.0923911e-01 -1.0988589e-01
7.6684489e+00 6.0802211e-01 -1.1576956e-01
7.7645000e+00 5.9774300e-01 -1.2360100e-01
7.7645000e+00 5.9774300e-01 -1.2360100e-01
7.8445889e+00 5.6345989e-01 -1.3479144e-01
7.9162589e+00 5.2778422e-01 -1.4530178e-01
7.9795100e+00 4.9071600e-01 -1.5513200e-01
8.0343422e+00 4.5225522e-01 -1.6428211e-01
8.0807556e+00 4.1240189e-01 -1.7275211e-01
8.1187500e+00 3.7115600e-01 -1.8054200e-01